<?xml version="1.0"?>
<VTKFile type="RectilinearGrid" version="0.1" byte_order="LittleEndian">
  <RectilinearGrid WholeExtent="0 60 45 60 0 60">
    <Piece Extent="0 60 45 60 0 60">
      <CellData Scalars="grain_id">
        <DataArray type="Int64" Name="grain_id" format="ascii">
          154 154 154 154 154 154 154 154 154 154 154 -1 -1 -1 -1 -1 -1 -1 -1 -1 -1 -1 -1 -1 -1 -1 -1 -1 -1 223 223 223 223 223 -1 -1 -1 -1 -1 -1 -1 -1 -1 -1 -1 -1 -1 -1 -1 -1 -1 -1 -1 -1 -1 -1 -1 -1 -1 -1 
          154 154 154 154 154 154 154 154 154 154 154 -1 -1 91 91 91 -1 -1 -1 -1 -1 -1 -1 -1 -1 -1 -1 -1 -1 223 223 223 223 223 -1 -1 -1 -1 -1 -1 -1 -1 -1 -1 -1 -1 -1 -1 -1 -1 -1 -1 -1 -1 -1 -1 -1 -1 -1 -1 
          154 154 154 154 154 154 154 154 154 154 154 -1 91 91 91 91 91 -1 -1 -1 -1 -1 -1 -1 -1 -1 -1 -1 -1 223 223 223 223 -1 -1 -1 -1 -1 -1 -1 -1 -1 -1 -1 -1 -1 -1 -1 -1 -1 -1 -1 -1 -1 -1 -1 -1 -1 -1 -1 
          154 154 154 154 154 154 154 154 154 154 154 91 91 91 91 91 91 -1 -1 -1 -1 -1 -1 -1 -1 167 167 167 167 223 223 223 -1 -1 -1 -1 -1 -1 -1 -1 -1 -1 -1 -1 -1 -1 -1 -1 -1 -1 -1 -1 -1 -1 -1 -1 -1 -1 -1 -1 
          154 154 154 154 154 154 154 154 154 154 154 91 91 91 91 91 91 91 -1 -1 -1 -1 167 167 167 167 167 167 167 223 223 -1 -1 -1 -1 -1 -1 -1 -1 -1 -1 -1 -1 -1 -1 -1 -1 -1 -1 -1 -1 -1 -1 -1 -1 -1 -1 -1 -1 -1 
          154 154 154 154 154 154 154 154 154 154 -1 91 91 91 91 91 91 91 -1 -1 -1 167 167 167 167 167 167 167 167 167 167 -1 -1 -1 -1 -1 -1 -1 -1 -1 218 -1 -1 -1 -1 -1 -1 -1 -1 -1 -1 -1 -1 -1 -1 -1 -1 -1 -1 -1 
          59 59 154 154 154 154 154 154 154 154 -1 91 91 91 91 91 91 91 -1 -1 167 167 167 167 167 167 167 167 167 167 167 -1 -1 -1 -1 -1 -1 -1 -1 -1 -1 -1 -1 -1 -1 -1 -1 -1 -1 -1 -1 -1 -1 -1 -1 -1 -1 -1 -1 -1 
          59 59 59 59 59 154 154 154 154 154 -1 -1 91 91 91 91 -1 -1 -1 -1 167 167 167 167 167 167 167 167 167 167 167 -1 -1 -1 -1 -1 -1 -1 -1 -1 -1 -1 -1 -1 -1 -1 -1 -1 -1 -1 -1 -1 -1 -1 -1 -1 -1 -1 -1 -1 
          59 59 59 59 59 -1 -1 -1 -1 -1 -1 -1 -1 91 -1 -1 -1 -1 -1 -1 -1 167 167 167 167 167 167 167 167 167 167 -1 -1 -1 -1 -1 -1 -1 -1 -1 -1 -1 -1 -1 -1 -1 -1 -1 203 203 203 203 203 203 203 203 203 -1 -1 -1 
          59 59 59 59 59 -1 -1 -1 -1 -1 -1 -1 -1 -1 -1 -1 -1 -1 238 238 -1 -1 167 167 167 167 167 167 167 167 -1 -1 -1 -1 -1 -1 -1 -1 -1 -1 -1 -1 -1 -1 -1 -1 -1 -1 -1 203 203 203 203 203 203 203 203 -1 -1 -1 
          59 59 59 59 59 -1 -1 -1 -1 -1 -1 -1 -1 -1 238 238 238 238 238 238 238 -1 167 167 167 167 167 167 167 167 -1 -1 -1 -1 -1 -1 -1 -1 -1 -1 -1 -1 -1 -1 -1 -1 -1 -1 -1 203 203 203 203 203 203 203 203 -1 -1 -1 
          59 59 59 59 59 -1 -1 -1 -1 -1 -1 -1 -1 238 238 238 238 238 238 238 238 -1 -1 167 167 167 167 167 167 -1 -1 -1 -1 -1 -1 -1 -1 -1 -1 -1 -1 -1 -1 -1 -1 -1 -1 -1 -1 -1 -1 203 203 203 203 203 -1 -1 -1 -1 
          59 59 59 59 59 -1 -1 -1 -1 -1 -1 -1 -1 238 238 238 238 238 238 238 238 -1 -1 -1 167 167 167 167 -1 -1 -1 -1 -1 -1 -1 -1 -1 -1 -1 -1 -1 -1 -1 -1 -1 -1 -1 -1 -1 -1 -1 -1 203 203 203 -1 -1 -1 -1 -1 
          59 59 59 59 59 -1 -1 -1 -1 -1 -1 -1 -1 -1 238 238 238 238 238 238 238 -1 -1 -1 -1 -1 167 -1 -1 -1 -1 -1 -1 -1 -1 -1 -1 -1 -1 -1 -1 -1 -1 -1 -1 -1 -1 -1 -1 -1 -1 -1 -1 203 -1 -1 -1 -1 -1 -1 
          59 59 59 59 59 -1 -1 -1 -1 -1 -1 -1 -1 -1 238 238 238 238 238 238 238 238 -1 -1 -1 -1 -1 -1 -1 -1 -1 -1 -1 -1 -1 -1 -1 -1 -1 -1 -1 -1 -1 -1 -1 -1 -1 -1 -1 -1 -1 -1 -1 -1 -1 -1 -1 -1 -1 -1 
          -1 154 154 154 154 154 154 154 154 154 154 -1 -1 91 91 91 91 -1 -1 -1 -1 -1 -1 -1 -1 -1 -1 -1 223 223 223 223 223 223 223 -1 -1 -1 -1 -1 218 218 218 -1 -1 -1 -1 -1 -1 -1 -1 -1 -1 -1 -1 -1 -1 -1 -1 -1 
          -1 154 154 154 154 154 154 154 154 154 154 -1 91 91 91 91 91 91 -1 -1 -1 -1 -1 -1 -1 -1 -1 -1 223 223 223 223 223 223 223 223 -1 -1 -1 218 218 218 218 -1 -1 -1 -1 -1 -1 -1 -1 -1 -1 -1 -1 -1 -1 -1 -1 -1 
          -1 154 154 154 154 154 154 154 154 154 154 91 91 91 91 91 91 91 -1 -1 -1 -1 -1 -1 -1 167 167 167 223 223 223 223 223 223 223 223 -1 -1 218 218 218 218 218 -1 -1 -1 -1 -1 -1 -1 -1 -1 -1 -1 -1 -1 -1 -1 -1 -1 
          -1 154 154 154 154 154 154 154 154 154 91 91 91 91 91 91 91 91 -1 -1 -1 -1 -1 167 167 167 167 167 223 223 223 223 223 223 223 223 -1 -1 218 218 218 218 218 -1 -1 -1 -1 -1 -1 -1 -1 -1 -1 -1 -1 -1 -1 -1 -1 -1 
          154 154 154 154 154 154 154 154 154 154 91 91 91 91 91 91 91 91 91 -1 -1 -1 167 167 167 167 167 167 167 223 223 223 223 223 223 -1 -1 -1 218 218 218 218 -1 -1 -1 -1 -1 -1 -1 -1 -1 -1 -1 -1 -1 -1 -1 -1 -1 -1 
          154 154 154 154 154 154 154 154 154 154 91 91 91 91 91 91 91 91 91 -1 -1 167 167 167 167 167 167 167 167 167 167 223 -1 -1 -1 -1 -1 -1 218 218 218 218 -1 -1 -1 -1 -1 -1 -1 -1 -1 -1 -1 -1 -1 -1 -1 -1 -1 -1 
          59 59 59 154 154 154 154 154 154 154 -1 91 91 91 91 91 91 91 91 -1 -1 167 167 167 167 167 167 167 167 167 167 167 -1 -1 -1 -1 -1 -1 -1 218 218 218 -1 -1 -1 -1 -1 -1 -1 -1 -1 -1 -1 -1 -1 -1 -1 -1 -1 -1 
          59 59 59 59 59 -1 154 154 154 -1 -1 -1 91 91 91 91 91 91 -1 -1 -1 167 167 167 167 167 167 167 167 167 167 167 -1 -1 -1 -1 -1 -1 -1 -1 -1 -1 -1 -1 -1 -1 -1 -1 203 203 203 203 203 203 203 203 -1 -1 -1 -1 
          59 59 59 59 59 -1 -1 -1 -1 -1 -1 -1 91 91 91 -1 -1 -1 -1 -1 238 167 167 167 167 167 167 167 167 167 167 -1 -1 -1 -1 -1 -1 -1 -1 -1 -1 -1 -1 -1 -1 -1 -1 203 203 203 203 203 203 203 203 203 203 -1 -1 -1 
          59 59 59 59 59 -1 -1 -1 -1 -1 -1 -1 -1 -1 -1 238 238 238 238 238 238 -1 167 167 167 167 167 167 167 167 167 -1 -1 -1 -1 -1 -1 -1 -1 -1 -1 -1 -1 -1 -1 -1 -1 -1 203 203 203 203 203 203 203 203 203 -1 -1 -1 
          59 59 59 59 59 -1 -1 -1 -1 -1 -1 -1 -1 238 238 238 238 238 238 238 238 238 -1 167 167 167 167 167 167 167 -1 -1 -1 -1 -1 -1 -1 -1 -1 -1 -1 -1 -1 -1 -1 -1 -1 -1 203 203 203 203 203 203 203 203 203 -1 -1 -1 
          59 59 59 59 59 -1 -1 -1 -1 -1 -1 -1 -1 238 238 238 238 238 238 238 238 238 -1 167 167 167 167 167 167 167 -1 -1 -1 -1 -1 -1 -1 -1 -1 -1 -1 -1 -1 -1 -1 -1 -1 -1 203 203 203 203 203 203 203 203 203 -1 -1 -1 
          59 59 59 59 59 -1 -1 -1 -1 -1 -1 -1 -1 238 238 238 238 238 238 238 238 238 -1 -1 -1 167 167 167 167 -1 -1 -1 -1 -1 -1 -1 -1 -1 -1 -1 -1 -1 -1 -1 -1 -1 145 -1 -1 203 203 203 203 203 203 231 -1 -1 -1 -1 
          59 59 59 59 59 -1 -1 -1 -1 -1 -1 -1 -1 238 238 238 238 238 238 238 238 238 -1 -1 -1 -1 167 167 -1 -1 -1 -1 -1 -1 -1 -1 -1 -1 -1 -1 -1 -1 -1 -1 -1 -1 145 -1 -1 203 203 203 203 203 231 231 -1 -1 -1 -1 
          59 59 59 59 59 -1 -1 -1 -1 -1 -1 -1 -1 238 238 238 238 238 238 238 238 238 -1 -1 -1 -1 -1 -1 -1 -1 -1 -1 -1 -1 -1 -1 -1 -1 -1 -1 -1 -1 -1 -1 -1 -1 -1 -1 -1 -1 203 203 203 203 231 231 -1 -1 -1 -1 
          -1 154 154 154 154 154 154 154 154 154 154 -1 91 91 91 91 91 91 -1 -1 -1 -1 -1 -1 -1 -1 -1 -1 223 223 223 223 223 223 223 223 -1 218 218 218 218 218 218 218 -1 -1 -1 -1 -1 -1 -1 -1 -1 -1 -1 -1 -1 -1 -1 -1 
          -1 154 154 154 154 154 154 154 154 154 -1 91 91 91 91 91 91 91 91 -1 -1 -1 -1 -1 -1 -1 -1 223 223 223 223 223 223 223 223 223 218 218 218 218 218 218 218 218 -1 -1 -1 -1 -1 -1 -1 -1 -1 -1 -1 -1 -1 -1 -1 -1 
          -1 154 154 154 154 154 154 154 154 154 91 91 91 91 91 91 91 91 91 -1 -1 -1 -1 -1 167 167 167 167 223 223 223 223 223 223 223 223 218 218 218 218 218 218 218 218 -1 -1 -1 -1 -1 -1 -1 -1 -1 -1 -1 -1 -1 -1 -1 -1 
          -1 154 154 154 154 154 154 154 154 154 91 91 91 91 91 91 91 91 91 91 -1 -1 -1 167 167 167 167 167 223 223 223 223 223 223 223 223 223 218 218 218 218 218 218 218 -1 -1 -1 -1 -1 -1 -1 -1 -1 -1 -1 -1 -1 -1 -1 -1 
          -1 154 154 154 154 154 154 154 154 91 91 91 91 91 91 91 91 91 91 91 -1 -1 167 167 167 167 167 167 167 223 223 223 223 223 223 223 -1 218 218 218 218 218 218 -1 -1 -1 -1 -1 -1 -1 -1 -1 -1 -1 -1 -1 -1 -1 -1 -1 
          59 154 154 154 154 154 154 154 154 -1 91 91 91 91 91 91 91 91 91 91 -1 -1 167 167 167 167 167 167 167 167 167 223 -1 -1 -1 -1 -1 -1 218 218 218 218 218 -1 -1 -1 -1 -1 -1 -1 -1 -1 -1 -1 -1 -1 -1 -1 -1 -1 
          59 59 59 59 59 154 154 154 154 -1 91 91 91 91 91 91 91 91 91 91 -1 167 167 167 167 167 167 167 167 167 167 167 -1 -1 -1 -1 -1 -1 -1 218 218 218 218 -1 -1 -1 -1 -1 -1 203 203 203 -1 -1 -1 -1 -1 -1 -1 -1 
          59 59 59 59 59 59 -1 -1 -1 -1 -1 91 91 91 91 91 91 91 91 -1 -1 167 167 167 167 167 167 167 167 167 167 167 -1 -1 -1 -1 -1 -1 -1 -1 -1 -1 -1 -1 -1 -1 -1 -1 203 203 203 203 203 203 203 203 -1 -1 -1 -1 
          59 59 59 59 59 59 -1 -1 -1 -1 -1 -1 91 91 91 91 91 -1 -1 238 238 167 167 167 167 167 167 167 167 167 167 167 -1 -1 -1 -1 -1 -1 -1 -1 -1 -1 -1 -1 -1 -1 -1 203 203 203 203 203 203 203 203 203 203 -1 -1 -1 
          59 59 59 59 59 59 -1 -1 -1 -1 -1 -1 -1 91 238 238 238 238 238 238 238 -1 167 167 167 167 167 167 167 167 167 -1 -1 -1 -1 -1 -1 -1 -1 -1 -1 -1 -1 -1 -1 -1 -1 -1 203 203 203 203 203 203 203 203 203 -1 -1 -1 
          59 59 59 59 59 59 -1 -1 -1 -1 -1 -1 238 238 238 238 238 238 238 238 238 238 -1 167 167 167 167 167 167 167 167 -1 -1 -1 -1 -1 -1 -1 -1 -1 -1 -1 -1 -1 -1 -1 -1 -1 203 203 203 203 203 203 203 203 203 -1 -1 -1 
          59 59 59 59 59 59 -1 -1 -1 -1 -1 -1 238 238 238 238 238 238 238 238 238 238 -1 -1 167 167 167 167 167 167 -1 -1 -1 -1 -1 -1 -1 -1 -1 -1 -1 -1 -1 -1 -1 -1 145 -1 203 203 203 203 203 203 203 231 231 231 -1 -1 
          59 59 59 59 59 59 -1 -1 -1 -1 -1 -1 -1 238 238 238 238 238 238 238 238 238 -1 -1 -1 167 167 167 167 -1 -1 -1 -1 -1 -1 -1 -1 -1 -1 -1 -1 -1 -1 -1 -1 145 145 145 145 203 203 203 203 203 231 231 231 231 -1 -1 
          59 59 59 59 59 -1 -1 -1 -1 -1 -1 -1 -1 238 238 238 238 238 238 238 238 238 -1 -1 -1 -1 -1 -1 -1 -1 -1 -1 -1 -1 -1 -1 -1 -1 -1 -1 -1 -1 -1 -1 -1 145 145 145 145 203 203 203 203 231 231 231 231 231 -1 -1 
          59 59 59 59 59 -1 -1 -1 -1 -1 -1 -1 -1 238 238 238 238 238 238 238 238 238 -1 -1 -1 -1 -1 -1 -1 -1 -1 -1 -1 -1 -1 -1 -1 -1 -1 -1 -1 -1 -1 -1 -1 145 145 145 145 -1 203 203 203 231 231 231 231 231 -1 -1 
          -1 -1 154 154 154 154 154 154 154 154 30 30 91 91 91 91 91 91 -1 -1 -1 -1 -1 -1 -1 -1 -1 223 223 223 223 223 223 223 223 223 218 218 218 218 218 218 218 218 218 -1 -1 -1 -1 -1 -1 -1 -1 -1 -1 -1 -1 -1 -1 -1 
          -1 -1 154 154 154 154 154 154 154 154 91 91 91 91 91 91 91 91 91 -1 -1 -1 -1 -1 -1 167 167 223 223 223 223 223 223 223 223 223 218 218 218 218 218 218 218 218 218 -1 -1 -1 -1 -1 -1 -1 -1 -1 -1 -1 -1 -1 -1 -1 
          -1 -1 154 154 154 154 154 154 154 91 91 91 91 91 91 91 91 91 91 91 -1 -1 -1 -1 167 167 167 223 223 223 223 223 223 223 223 223 218 218 218 218 218 218 218 218 218 -1 -1 -1 -1 -1 -1 -1 -1 -1 -1 -1 -1 -1 -1 -1 
          -1 -1 154 154 154 154 154 154 154 91 91 91 91 91 91 91 91 91 91 91 -1 -1 -1 167 167 167 167 167 223 223 223 223 223 223 223 223 218 218 218 218 218 218 218 218 218 -1 -1 -1 -1 -1 -1 -1 -1 -1 -1 -1 -1 -1 -1 -1 
          -1 -1 154 154 154 154 154 154 154 91 91 91 91 91 91 91 91 91 91 91 91 -1 -1 167 167 167 167 167 167 223 223 223 223 223 223 223 223 218 218 218 218 218 218 218 -1 -1 -1 -1 -1 -1 -1 -1 -1 -1 -1 -1 -1 -1 -1 -1 
          59 59 59 154 154 154 154 154 -1 91 91 91 91 91 91 91 91 91 91 91 91 -1 167 167 167 167 167 167 167 167 167 223 223 -1 -1 -1 -1 -1 218 218 218 218 218 218 -1 -1 -1 -1 -1 -1 -1 -1 -1 -1 -1 -1 -1 -1 -1 -1 
          59 59 59 59 59 59 154 154 -1 -1 91 91 91 91 91 91 91 91 91 91 91 -1 167 167 167 167 167 167 167 167 167 167 -1 -1 -1 -1 -1 -1 218 218 218 218 -1 -1 -1 -1 -1 -1 -1 203 203 203 203 203 203 203 -1 -1 -1 -1 
          59 59 59 59 59 59 -1 -1 -1 -1 -1 91 91 91 91 91 91 91 91 -1 -1 167 167 167 167 167 167 167 167 167 167 167 -1 -1 -1 -1 -1 -1 -1 -1 -1 -1 -1 -1 -1 -1 -1 -1 -1 203 203 203 203 203 203 203 -1 -1 -1 -1 
          59 59 59 59 59 59 -1 -1 -1 -1 -1 91 91 91 91 91 91 91 -1 -1 -1 167 167 167 167 167 167 167 167 167 167 167 -1 -1 -1 -1 27 27 27 -1 -1 -1 -1 -1 -1 -1 -1 -1 203 203 203 203 203 203 203 203 203 -1 -1 -1 
          59 59 59 59 59 59 -1 -1 -1 -1 -1 -1 91 91 91 238 238 238 238 238 238 -1 167 167 167 167 167 167 167 167 167 167 -1 -1 -1 -1 27 -1 -1 -1 -1 -1 -1 -1 -1 -1 -1 -1 203 203 203 203 203 203 203 203 203 -1 -1 -1 
          59 59 59 59 59 59 -1 -1 -1 -1 -1 -1 -1 238 238 238 238 238 238 238 238 -1 -1 167 167 167 167 167 167 167 167 -1 -1 -1 -1 -1 -1 -1 -1 -1 -1 -1 -1 -1 -1 -1 -1 -1 203 203 203 203 203 203 203 203 203 231 -1 -1 
          59 59 59 59 59 59 -1 -1 -1 -1 -1 -1 -1 238 238 238 238 238 238 238 238 -1 -1 -1 167 167 167 167 167 167 -1 -1 -1 -1 -1 -1 -1 -1 -1 -1 -1 -1 -1 -1 -1 145 145 145 203 203 203 203 203 203 231 231 231 231 231 -1 
          59 59 59 59 59 59 -1 -1 -1 -1 -1 -1 -1 238 238 238 238 238 238 238 238 238 -1 -1 -1 167 167 167 -1 -1 -1 -1 -1 -1 -1 -1 -1 -1 -1 -1 -1 -1 -1 -1 145 145 145 145 145 203 203 203 203 203 231 231 231 231 231 -1 
          59 59 59 59 59 59 -1 -1 -1 -1 -1 -1 -1 238 238 238 238 238 238 238 238 238 -1 -1 -1 -1 -1 -1 -1 -1 -1 -1 -1 -1 -1 -1 -1 -1 -1 -1 -1 -1 -1 -1 145 145 145 145 145 145 203 203 203 231 231 231 231 231 231 -1 
          59 59 59 59 59 -1 -1 -1 -1 -1 -1 -1 -1 238 238 238 238 238 238 238 238 238 -1 -1 -1 -1 -1 -1 -1 -1 -1 -1 -1 -1 -1 -1 -1 -1 -1 -1 -1 -1 -1 -1 145 145 145 145 145 145 203 203 231 231 231 231 231 231 231 -1 
          -1 -1 -1 154 154 154 154 154 154 30 30 30 30 91 91 91 91 91 -1 -1 -1 -1 -1 -1 -1 -1 223 223 223 223 223 223 223 223 223 223 218 218 218 218 218 218 218 218 218 -1 -1 -1 -1 -1 -1 -1 -1 -1 -1 -1 -1 -1 -1 -1 
          -1 -1 -1 154 154 154 154 154 154 91 91 91 91 91 91 91 91 91 91 -1 -1 -1 -1 -1 -1 -1 167 223 223 223 223 223 223 223 223 223 218 218 218 218 218 218 218 218 218 -1 -1 -1 -1 -1 -1 -1 -1 -1 -1 -1 -1 -1 -1 -1 
          -1 -1 154 154 154 154 154 154 91 91 91 91 91 91 91 91 91 91 91 -1 -1 -1 -1 -1 -1 167 167 223 223 223 223 223 223 223 223 223 218 218 218 218 218 218 218 218 218 -1 -1 -1 -1 -1 -1 -1 -1 -1 -1 -1 -1 -1 -1 -1 
          -1 -1 154 154 154 154 154 154 91 91 91 91 91 91 91 91 91 91 91 91 -1 -1 -1 -1 167 167 167 167 223 223 223 223 223 223 223 223 218 218 218 218 218 218 218 218 218 -1 -1 -1 -1 -1 -1 -1 -1 -1 -1 -1 -1 -1 -1 -1 
          -1 -1 154 154 154 154 154 154 91 91 91 91 91 91 91 91 91 91 91 91 91 -1 -1 167 167 167 167 167 167 223 223 223 223 223 223 223 -1 218 218 218 218 218 218 218 218 -1 -1 -1 -1 -1 -1 -1 -1 -1 -1 -1 -1 -1 -1 -1 
          -1 -1 -1 -1 154 154 154 -1 -1 91 91 91 91 91 91 91 91 91 91 91 91 -1 -1 167 167 167 167 167 167 167 167 223 223 223 -1 -1 -1 218 218 218 218 218 218 218 218 -1 -1 -1 -1 -1 -1 203 203 -1 -1 -1 -1 -1 -1 -1 
          59 59 59 59 59 59 -1 -1 -1 -1 91 91 91 91 91 91 91 91 91 91 91 -1 167 167 167 167 167 167 167 167 167 167 -1 -1 -1 -1 27 27 27 218 218 218 -1 -1 -1 -1 -1 -1 -1 -1 203 203 203 203 203 203 -1 -1 -1 -1 
          59 59 59 59 59 59 -1 -1 -1 -1 91 91 91 91 91 91 91 91 91 91 -1 -1 167 167 167 167 167 167 167 167 167 167 167 -1 -1 27 27 27 27 27 27 27 27 27 -1 -1 -1 -1 -1 203 203 203 203 203 203 203 -1 -1 -1 -1 
          59 59 59 59 59 59 -1 -1 -1 -1 -1 91 91 91 91 91 91 91 -1 -1 -1 -1 167 167 167 167 167 167 167 167 167 167 167 -1 -1 27 27 27 27 27 27 27 -1 -1 -1 -1 -1 -1 203 203 203 203 203 203 203 203 -1 -1 -1 -1 
          59 59 59 59 59 59 -1 -1 -1 -1 -1 -1 91 91 91 91 -1 -1 -1 238 -1 -1 167 167 167 167 167 167 167 167 167 167 -1 -1 -1 27 27 27 27 27 -1 -1 -1 -1 -1 -1 -1 -1 203 203 203 203 203 203 203 203 203 -1 -1 -1 
          59 59 59 59 59 59 -1 -1 -1 -1 -1 -1 -1 238 238 238 238 238 238 238 238 -1 -1 167 167 167 167 167 167 167 167 -1 -1 -1 -1 -1 27 27 -1 -1 -1 -1 -1 -1 -1 -1 145 145 203 203 203 203 203 203 203 203 231 231 -1 -1 
          59 59 59 59 59 -1 -1 -1 -1 -1 -1 -1 -1 238 238 238 238 238 238 238 238 -1 -1 -1 167 167 167 167 -1 -1 -1 -1 -1 -1 -1 -1 -1 -1 -1 -1 -1 -1 -1 -1 -1 145 145 145 145 203 203 203 203 203 231 231 231 231 231 -1 
          59 59 59 59 59 -1 -1 -1 -1 -1 -1 -1 -1 238 238 238 238 238 238 238 238 -1 -1 -1 -1 -1 -1 -1 -1 -1 -1 -1 -1 -1 -1 -1 -1 -1 -1 -1 -1 -1 -1 -1 145 145 145 145 145 145 203 203 203 231 231 231 231 231 231 -1 
          59 59 59 59 59 -1 -1 -1 -1 -1 -1 -1 -1 -1 238 238 238 238 238 238 238 -1 -1 -1 -1 -1 -1 -1 -1 -1 -1 -1 -1 -1 -1 -1 -1 -1 -1 -1 -1 -1 -1 145 145 145 145 145 145 145 203 231 231 231 231 231 231 231 231 -1 
          59 59 59 59 59 -1 -1 -1 -1 -1 -1 -1 -1 -1 238 238 238 238 238 238 238 238 -1 -1 -1 -1 -1 -1 -1 -1 -1 -1 -1 -1 -1 -1 -1 -1 -1 -1 -1 -1 -1 145 145 145 145 145 145 145 231 231 231 231 231 231 231 231 231 -1 
          -1 -1 -1 -1 -1 -1 -1 -1 -1 30 30 30 30 30 30 91 91 91 -1 -1 -1 -1 -1 -1 -1 -1 223 223 223 223 223 223 223 223 223 223 218 218 218 218 218 218 218 218 218 -1 -1 -1 -1 -1 -1 -1 -1 -1 -1 -1 -1 -1 -1 -1 
          -1 -1 -1 154 154 154 154 154 -1 -1 91 30 91 91 91 91 91 91 -1 -1 -1 -1 -1 -1 -1 -1 -1 223 223 223 223 223 223 223 223 223 218 218 218 218 218 218 218 218 218 -1 -1 -1 -1 -1 -1 -1 -1 -1 -1 -1 -1 -1 -1 -1 
          -1 -1 -1 154 154 154 154 154 91 91 91 91 91 91 91 91 91 91 91 -1 -1 -1 -1 -1 -1 167 -1 223 223 223 223 223 223 223 223 223 218 218 218 218 218 218 218 218 218 218 -1 -1 -1 -1 -1 -1 -1 -1 -1 -1 -1 -1 -1 -1 
          -1 -1 -1 154 154 154 154 -1 91 91 91 91 91 91 91 91 91 91 91 91 -1 -1 -1 -1 -1 167 167 167 223 223 223 223 223 223 223 223 218 218 218 218 218 218 218 218 218 218 -1 -1 -1 -1 -1 -1 -1 -1 -1 -1 -1 -1 -1 -1 
          -1 -1 -1 154 154 154 154 -1 91 91 91 91 91 91 91 91 91 91 91 91 -1 -1 -1 -1 167 167 167 167 167 223 223 223 223 223 223 -1 27 218 218 218 218 218 218 218 218 218 -1 -1 -1 -1 -1 -1 -1 -1 -1 -1 -1 -1 -1 -1 
          -1 -1 -1 -1 -1 -1 -1 -1 -1 91 91 91 91 91 91 91 91 91 91 91 91 -1 -1 167 167 167 167 167 167 167 223 223 223 223 -1 -1 27 27 218 218 218 218 218 218 218 -1 -1 -1 -1 -1 -1 203 203 203 203 -1 -1 -1 -1 -1 
          -1 59 59 59 59 -1 -1 -1 -1 91 91 91 91 91 91 91 91 91 91 91 -1 -1 -1 167 167 167 167 167 167 167 167 -1 -1 -1 -1 27 27 27 27 27 27 27 27 27 27 27 -1 -1 -1 -1 203 203 203 203 203 -1 -1 -1 -1 -1 
          59 59 59 59 59 -1 -1 -1 -1 -1 91 91 91 91 91 91 91 91 91 -1 -1 -1 167 167 167 167 167 167 167 167 167 167 -1 -1 -1 27 27 27 27 27 27 27 27 27 27 -1 -1 -1 -1 203 203 203 203 203 203 203 -1 -1 -1 -1 
          59 59 59 59 59 -1 -1 -1 -1 -1 -1 91 91 91 91 91 91 91 -1 -1 -1 -1 167 167 167 167 167 167 167 167 167 167 -1 -1 -1 27 27 27 27 27 27 27 27 27 -1 -1 -1 -1 203 203 203 203 203 203 203 203 -1 -1 -1 -1 
          271 59 59 59 59 -1 -1 -1 -1 -1 -1 91 91 91 91 91 91 -1 -1 -1 -1 -1 -1 167 167 167 167 167 167 167 167 -1 -1 -1 -1 27 27 27 27 27 27 27 27 -1 -1 -1 -1 -1 203 203 203 203 203 203 203 203 203 -1 -1 -1 
          59 59 59 59 59 -1 -1 -1 -1 -1 -1 -1 -1 91 91 -1 238 238 238 238 -1 -1 -1 167 167 167 167 167 167 -1 -1 -1 -1 -1 -1 -1 27 27 27 27 27 -1 -1 -1 -1 145 145 145 203 203 203 203 203 203 203 203 231 231 -1 -1 
          59 271 271 271 -1 82 -1 -1 -1 -1 -1 -1 -1 -1 238 238 238 238 238 238 -1 -1 -1 -1 167 167 167 -1 -1 -1 -1 -1 -1 -1 -1 -1 -1 27 -1 -1 -1 -1 -1 -1 145 145 145 145 145 203 203 203 203 203 203 231 231 231 231 -1 
          59 59 271 59 -1 -1 -1 -1 -1 -1 -1 -1 -1 -1 238 238 238 238 238 238 238 -1 -1 -1 -1 -1 -1 -1 -1 -1 -1 -1 -1 -1 -1 -1 -1 -1 -1 -1 -1 -1 -1 145 145 145 145 145 145 145 203 203 203 231 231 231 231 231 231 231 
          59 59 59 59 -1 -1 -1 -1 -1 -1 -1 -1 -1 -1 238 238 238 238 238 238 238 -1 -1 -1 -1 -1 -1 -1 -1 -1 -1 -1 -1 -1 -1 -1 -1 -1 -1 -1 -1 -1 -1 145 145 145 145 145 145 145 145 231 231 231 231 231 231 231 231 231 
          59 59 59 59 -1 -1 -1 -1 -1 -1 -1 -1 -1 -1 -1 238 238 238 238 238 238 -1 -1 -1 -1 -1 -1 -1 -1 -1 -1 -1 -1 -1 -1 -1 -1 -1 -1 -1 -1 -1 145 145 145 145 145 145 145 145 145 231 231 231 231 231 231 231 231 231 
          -1 -1 -1 -1 -1 -1 -1 -1 -1 30 30 30 30 30 30 91 91 -1 -1 -1 -1 -1 -1 -1 -1 -1 223 223 223 223 223 223 223 223 223 223 218 218 218 218 218 218 218 218 -1 -1 -1 -1 -1 -1 -1 -1 -1 -1 -1 -1 -1 -1 -1 -1 
          -1 -1 -1 -1 -1 -1 -1 -1 -1 -1 30 30 30 91 91 91 91 91 -1 -1 -1 -1 -1 -1 -1 -1 -1 223 223 223 223 223 223 223 223 223 218 218 218 218 218 218 218 218 218 -1 -1 -1 -1 -1 -1 -1 -1 -1 -1 -1 -1 -1 -1 -1 
          -1 -1 -1 -1 154 154 -1 -1 -1 91 91 91 91 91 91 91 91 91 91 -1 -1 -1 -1 -1 -1 -1 -1 223 223 223 223 223 223 223 223 -1 218 218 218 218 218 218 218 218 218 218 -1 -1 -1 -1 -1 -1 -1 -1 -1 -1 -1 -1 -1 -1 
          -1 -1 -1 -1 154 154 -1 -1 -1 91 91 91 91 91 91 91 91 91 91 -1 -1 -1 -1 -1 -1 -1 -1 -1 223 223 223 223 223 223 223 -1 218 218 218 218 218 218 218 218 218 218 -1 -1 -1 -1 -1 -1 -1 -1 -1 -1 -1 -1 -1 -1 
          -1 -1 -1 -1 -1 -1 -1 -1 -1 91 91 91 91 91 91 91 91 91 91 91 -1 -1 -1 -1 -1 167 167 -1 -1 223 223 223 223 223 223 -1 27 27 218 218 218 218 218 218 218 218 -1 -1 -1 -1 -1 -1 -1 -1 -1 -1 -1 -1 -1 -1 
          -1 -1 -1 -1 -1 -1 -1 -1 -1 91 91 91 91 91 91 91 91 91 91 91 -1 -1 -1 -1 167 167 167 167 -1 223 223 223 223 223 -1 27 27 27 27 27 27 27 27 27 27 -1 -1 -1 -1 -1 -1 -1 203 203 203 -1 -1 -1 -1 -1 
          -1 -1 -1 -1 -1 -1 -1 -1 -1 -1 91 91 91 91 91 91 91 91 91 -1 -1 -1 -1 167 167 167 167 167 167 -1 -1 -1 -1 -1 -1 27 27 27 27 27 27 27 27 27 27 27 -1 -1 -1 -1 -1 203 203 203 203 -1 -1 -1 -1 -1 
          271 271 271 271 -1 -1 -1 -1 -1 -1 91 91 91 91 91 91 91 91 -1 -1 -1 -1 -1 167 167 167 167 167 167 167 -1 -1 -1 -1 -1 27 27 27 27 27 27 27 27 27 27 27 -1 -1 -1 -1 203 203 203 203 203 203 -1 -1 -1 -1 
          271 271 271 271 82 82 82 -1 -1 -1 -1 91 91 91 91 91 91 -1 -1 -1 -1 -1 167 167 167 167 167 167 167 167 167 -1 -1 -1 27 27 27 27 27 27 27 27 27 27 27 -1 -1 -1 -1 203 203 203 203 203 203 203 -1 -1 -1 -1 
          271 271 271 271 82 82 82 82 -1 -1 -1 -1 91 91 91 91 -1 -1 -1 -1 -1 -1 -1 167 167 167 167 167 167 -1 -1 -1 -1 -1 -1 27 27 27 27 27 27 27 27 27 27 -1 145 145 203 203 203 203 203 203 203 203 203 146 146 -1 
          271 271 271 271 82 82 82 -1 -1 -1 -1 -1 91 91 -1 -1 -1 -1 -1 -1 -1 -1 -1 -1 167 167 167 -1 -1 -1 -1 -1 -1 -1 -1 -1 27 27 27 27 27 27 27 -1 -1 145 145 145 203 203 203 203 203 203 203 203 231 146 146 -1 
          271 271 271 271 82 82 82 -1 -1 -1 -1 -1 -1 -1 -1 238 238 238 238 238 -1 -1 -1 -1 -1 -1 -1 -1 -1 -1 -1 -1 -1 -1 -1 -1 -1 27 27 27 27 -1 -1 243 145 145 145 145 145 203 203 203 203 203 231 231 231 231 231 -1 
          59 271 271 271 82 82 82 -1 -1 -1 -1 -1 -1 -1 -1 238 238 238 238 238 -1 -1 -1 -1 -1 -1 -1 -1 -1 -1 -1 -1 -1 -1 -1 -1 -1 -1 -1 -1 -1 -1 -1 243 145 145 145 145 145 145 203 203 231 231 231 231 231 231 231 231 
          59 59 271 -1 -1 -1 -1 -1 -1 -1 -1 -1 -1 -1 -1 238 238 238 238 238 -1 -1 -1 -1 -1 -1 -1 -1 -1 -1 -1 -1 -1 -1 -1 -1 -1 -1 -1 -1 -1 -1 145 145 145 145 145 145 145 145 145 145 231 231 231 231 231 231 231 231 
          -1 -1 -1 -1 -1 -1 -1 -1 -1 -1 -1 -1 -1 -1 -1 -1 238 238 238 238 -1 -1 -1 -1 -1 -1 -1 -1 -1 -1 -1 -1 -1 -1 -1 -1 -1 -1 -1 -1 -1 -1 145 145 145 145 145 145 145 145 145 145 231 231 231 231 231 231 231 -1 
          -1 122 122 122 -1 -1 -1 -1 -1 30 30 30 30 30 30 91 91 -1 -1 -1 -1 -1 -1 -1 -1 -1 -1 223 223 223 223 223 223 223 223 170 -1 218 218 218 218 218 218 218 -1 -1 -1 -1 -1 -1 -1 -1 -1 -1 -1 -1 -1 -1 -1 -1 
          -1 -1 -1 -1 -1 -1 -1 -1 -1 30 30 30 30 91 91 91 91 -1 -1 -1 -1 -1 -1 -1 -1 -1 -1 223 223 223 223 223 223 223 223 -1 218 218 218 218 218 218 218 218 218 -1 -1 -1 -1 -1 -1 -1 -1 -1 -1 -1 -1 -1 -1 -1 
          -1 -1 -1 -1 -1 -1 -1 -1 -1 -1 91 91 91 91 91 91 91 91 -1 -1 -1 -1 -1 -1 -1 -1 -1 -1 223 223 223 223 223 223 223 -1 218 218 218 218 218 218 218 218 218 -1 -1 -1 -1 -1 -1 -1 -1 -1 -1 -1 -1 -1 -1 -1 
          -1 -1 -1 -1 -1 -1 -1 -1 -1 -1 91 91 91 91 91 91 91 91 91 -1 -1 -1 -1 -1 -1 -1 -1 -1 223 223 223 223 223 223 -1 -1 27 27 218 218 218 218 218 218 218 218 -1 -1 -1 -1 -1 -1 -1 -1 -1 -1 -1 -1 -1 -1 
          82 82 -1 -1 -1 -1 -1 -1 -1 -1 91 91 91 91 91 91 91 91 91 -1 -1 -1 -1 -1 -1 -1 -1 -1 -1 223 223 223 223 223 -1 -1 27 27 27 218 218 27 218 218 218 218 -1 -1 -1 -1 -1 -1 -1 -1 -1 -1 -1 -1 -1 -1 
          82 82 82 82 82 -1 -1 -1 -1 -1 -1 91 91 91 91 91 91 91 91 -1 -1 -1 -1 -1 -1 -1 -1 -1 -1 -1 223 223 223 -1 -1 27 27 27 27 27 27 27 27 27 27 -1 -1 -1 -1 -1 -1 -1 -1 203 -1 -1 -1 -1 -1 -1 
          -1 82 82 82 82 82 82 -1 -1 -1 -1 91 91 91 91 91 91 91 -1 -1 -1 -1 -1 -1 167 167 -1 -1 -1 -1 -1 -1 -1 -1 -1 27 27 27 27 27 27 27 27 27 27 27 -1 -1 -1 -1 -1 203 203 203 203 -1 -1 -1 -1 -1 
          271 82 82 82 82 82 82 82 -1 -1 -1 91 91 91 91 91 91 -1 -1 -1 -1 -1 -1 -1 167 167 167 -1 -1 -1 -1 -1 -1 -1 27 27 27 27 27 27 27 27 27 27 27 -1 -1 -1 -1 -1 203 203 203 203 203 203 146 -1 -1 -1 
          271 271 271 82 82 82 82 82 -1 -1 -1 -1 91 91 91 91 -1 -1 -1 -1 -1 -1 -1 167 167 167 167 167 -1 -1 -1 -1 -1 -1 27 27 27 27 27 27 27 27 27 27 27 -1 -1 -1 -1 203 203 203 203 203 203 203 146 146 -1 -1 
          271 271 271 82 82 82 82 82 -1 -1 -1 -1 -1 91 91 -1 -1 -1 -1 -1 -1 -1 -1 167 167 167 167 171 171 -1 -1 -1 -1 -1 27 27 27 27 27 27 27 27 27 27 27 145 145 145 145 203 203 203 203 203 203 146 146 146 146 -1 
          271 271 271 82 82 82 82 82 -1 -1 -1 -1 -1 -1 -1 -1 -1 -1 -1 -1 -1 -1 -1 -1 -1 -1 -1 -1 -1 -1 -1 -1 -1 -1 -1 27 27 27 27 27 27 27 27 27 243 145 145 145 145 203 203 203 203 231 231 146 146 146 146 -1 
          271 271 271 82 82 82 82 82 -1 -1 -1 -1 -1 -1 -1 -1 -1 -1 -1 -1 -1 -1 -1 -1 -1 -1 -1 -1 -1 -1 -1 -1 -1 -1 -1 -1 -1 27 27 27 27 27 27 243 243 145 145 145 145 145 203 203 203 231 231 231 231 231 231 -1 
          271 271 271 82 82 82 82 -1 -1 -1 -1 -1 -1 -1 -1 -1 238 238 238 -1 -1 -1 -1 -1 -1 -1 -1 -1 -1 -1 -1 -1 -1 -1 -1 -1 -1 -1 27 27 27 -1 243 243 243 145 145 145 145 145 145 145 231 231 231 231 231 231 231 -1 
          271 271 271 -1 -1 -1 -1 -1 -1 -1 -1 -1 -1 -1 -1 -1 -1 238 238 -1 -1 -1 -1 -1 -1 -1 -1 -1 -1 -1 -1 -1 -1 -1 -1 -1 -1 -1 -1 -1 -1 -1 145 145 145 145 145 145 145 145 145 145 231 231 231 231 231 231 231 -1 
          -1 -1 -1 -1 -1 -1 -1 -1 -1 -1 -1 -1 -1 -1 -1 -1 -1 238 -1 -1 -1 -1 -1 -1 -1 -1 -1 -1 -1 -1 -1 -1 -1 -1 -1 -1 -1 -1 -1 -1 -1 -1 145 145 145 145 145 145 145 145 145 145 231 231 231 231 231 231 231 -1 
          -1 122 122 122 122 122 122 122 -1 30 30 30 30 30 30 91 -1 -1 -1 -1 -1 -1 -1 -1 -1 -1 -1 -1 -1 -1 223 223 223 223 -1 -1 -1 -1 218 218 218 218 218 250 250 250 250 -1 -1 -1 -1 -1 -1 -1 -1 -1 -1 -1 -1 -1 
          -1 -1 -1 -1 -1 38 -1 -1 -1 -1 30 30 30 30 91 91 91 -1 -1 -1 -1 -1 -1 -1 -1 -1 -1 -1 -1 223 223 223 223 223 -1 -1 -1 27 218 218 218 218 218 218 218 -1 -1 -1 -1 -1 -1 -1 -1 -1 -1 -1 -1 -1 -1 -1 
          -1 -1 -1 -1 -1 -1 -1 -1 -1 -1 -1 91 91 91 91 91 91 91 -1 -1 -1 -1 -1 -1 -1 -1 -1 -1 -1 223 223 223 223 223 -1 -1 27 27 27 218 218 218 218 218 218 -1 -1 -1 -1 -1 -1 -1 -1 -1 -1 -1 -1 -1 -1 -1 
          -1 -1 -1 -1 -1 -1 -1 -1 -1 -1 -1 91 91 91 91 91 91 91 -1 -1 -1 -1 -1 -1 -1 -1 -1 -1 -1 223 223 223 223 -1 -1 -1 27 27 27 27 27 218 218 218 218 -1 -1 -1 -1 -1 -1 -1 -1 -1 -1 -1 -1 -1 -1 -1 
          82 82 82 82 82 82 82 -1 -1 -1 -1 91 91 91 91 91 91 91 -1 -1 -1 -1 -1 -1 -1 -1 -1 -1 -1 223 223 223 223 -1 -1 27 27 27 27 27 27 27 27 27 -1 -1 -1 -1 -1 -1 -1 -1 -1 -1 -1 -1 -1 -1 -1 -1 
          82 82 82 82 82 82 82 82 82 -1 -1 -1 91 91 91 91 91 91 -1 -1 -1 -1 -1 -1 -1 -1 -1 -1 -1 -1 223 223 -1 -1 -1 27 27 27 27 27 27 27 27 27 27 -1 -1 -1 -1 -1 -1 -1 -1 -1 -1 -1 -1 -1 -1 -1 
          82 82 82 82 82 82 82 82 82 -1 -1 -1 91 91 91 91 91 -1 -1 -1 -1 -1 -1 -1 -1 -1 -1 -1 -1 -1 -1 -1 -1 -1 -1 27 27 27 27 27 27 27 27 27 27 -1 -1 -1 -1 -1 -1 -1 146 146 146 146 -1 -1 -1 -1 
          271 82 82 82 82 82 82 82 82 -1 -1 -1 -1 91 91 91 -1 -1 -1 -1 -1 -1 -1 -1 -1 -1 -1 -1 -1 -1 -1 -1 -1 -1 27 27 27 27 27 27 27 27 27 27 27 -1 -1 -1 -1 -1 -1 146 146 146 146 146 146 146 -1 -1 
          271 271 82 82 82 82 82 82 82 -1 -1 -1 -1 -1 -1 -1 -1 -1 -1 -1 -1 -1 -1 -1 -1 -1 171 171 171 -1 -1 -1 -1 -1 27 27 27 27 27 27 27 27 27 27 27 -1 145 -1 -1 -1 203 146 146 146 146 146 146 146 146 -1 
          271 271 82 82 82 82 82 82 82 -1 -1 -1 -1 -1 -1 -1 -1 -1 -1 -1 -1 -1 -1 -1 -1 171 171 171 171 171 -1 -1 -1 -1 27 27 27 27 27 27 27 27 27 27 243 243 145 145 243 243 146 146 146 146 146 146 146 146 146 -1 
          271 271 271 82 82 82 82 82 -1 -1 -1 -1 -1 -1 -1 -1 -1 -1 -1 -1 -1 -1 -1 -1 -1 171 171 171 171 -1 -1 -1 -1 -1 -1 27 27 27 27 27 27 27 27 243 243 243 145 145 243 145 146 146 146 146 146 146 146 146 146 -1 
          271 271 271 82 82 82 82 82 -1 -1 -1 -1 -1 -1 -1 -1 -1 -1 -1 -1 -1 -1 -1 -1 -1 -1 -1 171 171 -1 -1 -1 -1 -1 -1 -1 27 27 27 27 27 27 27 243 243 243 145 145 145 145 146 146 146 146 146 146 146 146 146 -1 
          271 271 271 82 82 82 82 82 -1 -1 -1 -1 -1 -1 -1 -1 -1 -1 -1 -1 -1 -1 -1 -1 -1 -1 -1 -1 -1 -1 -1 -1 -1 -1 -1 -1 -1 -1 27 27 27 27 243 243 243 243 145 145 145 145 145 146 146 231 231 146 146 146 146 -1 
          271 271 271 -1 -1 -1 -1 -1 -1 -1 -1 -1 -1 -1 -1 -1 -1 -1 -1 -1 -1 -1 -1 -1 -1 -1 -1 -1 -1 -1 -1 -1 -1 -1 -1 -1 -1 -1 125 125 125 125 243 243 145 145 243 145 145 145 145 145 231 231 231 231 231 146 -1 -1 
          -1 -1 -1 -1 -1 -1 -1 -1 -1 -1 -1 -1 -1 -1 -1 -1 -1 -1 -1 -1 -1 -1 -1 -1 -1 -1 -1 -1 -1 -1 -1 -1 -1 -1 -1 -1 -1 -1 125 125 125 145 145 145 145 145 145 145 145 145 145 145 231 231 231 231 231 231 -1 -1 
          -1 122 122 122 38 38 38 38 38 38 30 30 30 30 30 -1 -1 -1 -1 -1 -1 -1 -1 -1 -1 -1 -1 -1 -1 -1 -1 -1 -1 -1 -1 -1 -1 -1 -1 218 218 250 250 250 250 250 250 -1 -1 -1 -1 -1 -1 -1 -1 -1 -1 -1 -1 -1 
          -1 -1 -1 -1 38 38 38 38 38 38 -1 -1 30 30 91 91 -1 -1 -1 -1 -1 -1 -1 -1 -1 -1 -1 -1 -1 -1 -1 -1 -1 -1 -1 -1 -1 27 27 218 218 218 250 250 250 250 -1 -1 -1 -1 -1 -1 -1 -1 -1 -1 -1 -1 -1 -1 
          -1 -1 -1 -1 38 38 38 38 38 -1 -1 -1 91 91 91 91 91 -1 -1 -1 -1 -1 -1 -1 -1 -1 -1 -1 -1 -1 -1 -1 -1 -1 -1 -1 27 27 27 27 27 218 218 -1 -1 -1 -1 -1 -1 -1 -1 -1 -1 -1 -1 -1 -1 -1 -1 -1 
          -1 -1 -1 -1 -1 38 38 38 -1 -1 -1 -1 91 91 91 91 91 91 -1 -1 -1 -1 -1 -1 -1 -1 -1 -1 -1 -1 -1 -1 -1 -1 -1 -1 27 27 27 27 27 27 27 -1 -1 -1 -1 -1 -1 -1 -1 -1 -1 -1 -1 -1 -1 -1 -1 -1 
          82 82 82 82 82 82 82 82 82 82 -1 -1 -1 91 91 91 91 -1 -1 -1 -1 -1 -1 -1 -1 -1 -1 -1 -1 -1 -1 -1 -1 -1 -1 27 27 27 27 27 27 27 27 27 -1 -1 -1 -1 -1 -1 -1 -1 -1 -1 -1 -1 -1 -1 -1 -1 
          82 82 82 82 82 82 82 82 82 82 -1 -1 -1 91 91 91 -1 -1 -1 -1 -1 -1 -1 -1 -1 -1 -1 -1 -1 -1 -1 -1 -1 -1 -1 27 27 27 27 27 27 27 27 27 27 -1 -1 -1 -1 -1 -1 -1 146 146 146 -1 -1 -1 -1 -1 