<?xml version="1.0"?>
<VTKFile type="RectilinearGrid" version="0.1" byte_order="LittleEndian">
  <RectilinearGrid WholeExtent="0 60 30 45 0 60">
    <Piece Extent="0 60 30 45 0 60">
      <CellData Scalars="grain_id">
        <DataArray type="Int64" Name="grain_id" format="ascii">
          -1 -1 74 74 74 74 74 74 74 -1 -1 -1 -1 -1 -1 -1 -1 -1 -1 -1 -1 -1 -1 -1 -1 -1 -1 -1 -1 -1 -1 209 209 209 209 -1 -1 -1 -1 -1 -1 21 21 21 21 21 21 21 21 21 21 -1 -1 -1 -1 -1 -1 -1 -1 -1 
          -1 -1 74 74 74 74 74 74 74 74 -1 -1 -1 -1 -1 -1 -1 -1 -1 -1 -1 -1 -1 -1 -1 -1 -1 -1 -1 -1 -1 -1 -1 -1 -1 -1 -1 -1 -1 -1 -1 -1 21 21 21 21 21 21 21 21 -1 -1 -1 58 -1 -1 -1 -1 -1 -1 
          -1 74 74 74 74 74 74 74 74 74 -1 -1 -1 -1 -1 -1 -1 -1 -1 -1 -1 -1 -1 -1 -1 -1 -1 -1 -1 -1 -1 -1 -1 -1 -1 -1 -1 -1 -1 -1 -1 -1 21 21 21 21 21 21 21 -1 -1 -1 -1 58 -1 -1 -1 -1 -1 -1 
          -1 74 74 74 74 74 74 74 74 74 -1 -1 -1 -1 -1 -1 -1 -1 -1 -1 -1 -1 -1 -1 -1 -1 -1 -1 -1 -1 -1 142 142 -1 -1 -1 -1 -1 -1 -1 -1 -1 -1 21 21 21 21 21 -1 -1 -1 -1 58 58 -1 -1 -1 -1 -1 -1 
          -1 74 74 74 74 74 74 74 74 -1 -1 -1 -1 -1 -1 -1 -1 -1 -1 -1 -1 -1 -1 -1 -1 -1 -1 -1 -1 -1 142 142 142 -1 -1 -1 -1 -1 -1 -1 -1 -1 -1 -1 21 21 21 -1 -1 -1 -1 -1 58 58 -1 -1 -1 -1 -1 -1 
          -1 74 74 74 74 74 74 74 74 -1 -1 -1 -1 -1 -1 -1 -1 -1 -1 -1 -1 -1 -1 -1 -1 -1 -1 -1 -1 142 142 142 142 -1 -1 -1 -1 -1 -1 -1 -1 -1 -1 -1 -1 -1 -1 -1 -1 -1 -1 58 58 58 -1 -1 -1 -1 -1 -1 
          -1 -1 -1 74 74 74 74 74 74 -1 -1 -1 -1 -1 -1 -1 -1 -1 -1 -1 -1 -1 -1 -1 -1 -1 -1 -1 -1 142 142 142 142 142 -1 -1 -1 -1 -1 -1 -1 -1 -1 -1 -1 -1 -1 -1 -1 -1 -1 58 58 58 -1 -1 -1 -1 -1 -1 
          -1 -1 -1 -1 74 74 74 74 -1 -1 -1 -1 -1 -1 -1 -1 -1 -1 -1 -1 -1 -1 -1 -1 -1 -1 -1 -1 -1 -1 -1 142 142 -1 -1 -1 -1 -1 -1 -1 -1 -1 -1 -1 -1 -1 -1 -1 -1 -1 -1 58 58 58 -1 -1 -1 -1 -1 -1 
          -1 -1 -1 -1 -1 -1 74 74 -1 -1 -1 -1 -1 -1 -1 -1 -1 -1 -1 -1 -1 -1 -1 -1 -1 -1 -1 -1 -1 -1 -1 -1 -1 -1 -1 -1 -1 -1 -1 -1 -1 -1 -1 -1 -1 -1 -1 -1 -1 -1 58 58 58 58 -1 -1 -1 -1 -1 -1 
          -1 -1 -1 -1 -1 -1 -1 -1 -1 -1 -1 -1 -1 -1 -1 -1 -1 -1 -1 -1 -1 -1 -1 -1 -1 -1 -1 -1 -1 -1 -1 -1 -1 -1 -1 -1 -1 -1 -1 -1 -1 -1 -1 -1 -1 -1 -1 -1 -1 -1 58 58 58 58 -1 -1 -1 -1 -1 -1 
          -1 -1 -1 -1 -1 -1 -1 -1 -1 -1 30 -1 -1 -1 -1 -1 -1 -1 -1 -1 -1 -1 -1 -1 -1 -1 -1 -1 -1 -1 -1 -1 -1 -1 -1 -1 -1 -1 -1 -1 -1 -1 -1 -1 -1 -1 -1 -1 -1 -1 58 58 58 -1 -1 -1 -1 -1 -1 -1 
          -1 -1 -1 -1 -1 -1 -1 -1 -1 30 30 30 -1 -1 -1 -1 -1 -1 -1 -1 -1 -1 -1 -1 -1 -1 -1 -1 -1 -1 -1 -1 -1 -1 -1 -1 -1 -1 -1 -1 -1 -1 -1 -1 -1 -1 -1 -1 -1 -1 -1 -1 -1 -1 -1 -1 -1 -1 -1 -1 
          -1 154 154 154 154 154 -1 -1 -1 30 30 30 -1 -1 -1 -1 -1 -1 -1 -1 -1 -1 -1 -1 -1 -1 -1 -1 -1 -1 -1 223 223 -1 -1 -1 -1 -1 -1 -1 -1 -1 -1 -1 -1 -1 -1 -1 -1 -1 -1 -1 -1 -1 -1 -1 -1 -1 -1 -1 
          -1 154 154 154 154 154 154 154 154 154 -1 -1 -1 -1 -1 -1 -1 -1 -1 -1 -1 -1 -1 -1 -1 -1 -1 -1 -1 -1 223 223 223 223 -1 -1 -1 -1 -1 -1 -1 -1 -1 -1 -1 -1 -1 -1 -1 -1 -1 -1 -1 -1 -1 -1 -1 -1 -1 -1 
          -1 154 154 154 154 154 154 154 154 154 154 -1 -1 -1 -1 -1 -1 -1 -1 -1 -1 -1 -1 -1 -1 -1 -1 -1 -1 -1 223 223 223 223 -1 -1 -1 -1 -1 -1 -1 -1 -1 -1 -1 -1 -1 -1 -1 -1 -1 -1 -1 -1 -1 -1 -1 -1 -1 -1 
          -1 -1 74 74 74 74 74 74 74 74 -1 -1 -1 -1 -1 -1 -1 -1 -1 41 41 41 -1 -1 -1 -1 -1 -1 -1 -1 -1 209 209 209 209 209 -1 -1 -1 -1 -1 21 21 21 21 21 21 21 21 21 21 -1 -1 -1 -1 -1 -1 -1 -1 -1 
          -1 74 74 74 74 74 74 74 74 74 74 -1 -1 -1 -1 -1 -1 -1 -1 -1 41 41 -1 -1 -1 -1 -1 -1 -1 -1 142 142 142 -1 -1 -1 -1 -1 -1 -1 -1 21 21 21 21 21 21 21 21 21 -1 -1 58 58 58 -1 -1 -1 -1 -1 
          -1 74 74 74 74 74 74 74 74 74 74 -1 -1 -1 -1 -1 -1 -1 -1 -1 -1 41 -1 -1 -1 -1 -1 -1 -1 142 142 142 142 -1 -1 -1 -1 -1 -1 -1 -1 -1 21 21 21 21 21 21 21 -1 -1 58 58 58 58 58 -1 -1 -1 -1 
          74 74 74 74 74 74 74 74 74 74 74 -1 -1 -1 -1 -1 -1 -1 -1 -1 -1 41 -1 -1 -1 -1 -1 -1 142 142 142 142 142 -1 -1 -1 -1 -1 -1 -1 -1 -1 21 21 21 21 21 21 -1 -1 58 58 58 58 58 58 -1 -1 -1 -1 
          74 74 74 74 74 74 74 74 74 74 -1 -1 -1 -1 -1 -1 -1 -1 -1 -1 -1 -1 -1 -1 -1 -1 -1 142 142 142 142 142 142 142 -1 -1 -1 -1 -1 -1 -1 -1 -1 21 21 21 21 -1 -1 -1 58 58 58 58 58 58 -1 -1 -1 -1 
          74 74 74 74 74 74 74 74 74 74 -1 -1 -1 -1 -1 -1 -1 -1 -1 -1 -1 -1 -1 -1 -1 -1 -1 142 142 142 142 142 142 142 -1 -1 -1 -1 -1 -1 -1 -1 -1 -1 -1 -1 -1 -1 -1 -1 58 58 58 58 58 58 -1 -1 -1 -1 
          -1 74 74 74 74 74 74 74 74 74 -1 -1 -1 -1 -1 -1 -1 -1 -1 -1 -1 -1 -1 -1 -1 -1 -1 -1 86 142 142 142 142 142 -1 -1 -1 -1 -1 -1 -1 -1 -1 -1 -1 -1 -1 -1 -1 58 58 58 58 58 58 -1 -1 -1 -1 -1 
          -1 -1 -1 74 74 74 74 74 74 -1 -1 -1 -1 -1 -1 -1 -1 -1 -1 -1 -1 -1 -1 -1 -1 -1 -1 -1 86 86 86 142 142 170 -1 -1 -1 -1 -1 -1 -1 -1 -1 -1 -1 -1 -1 -1 -1 58 58 58 58 58 58 -1 -1 -1 -1 -1 
          -1 -1 -1 -1 -1 74 74 74 74 -1 -1 -1 -1 -1 -1 -1 -1 -1 -1 -1 -1 -1 -1 -1 -1 -1 -1 -1 -1 86 86 86 86 170 170 170 -1 -1 -1 -1 -1 -1 -1 -1 -1 -1 -1 -1 -1 58 58 58 58 58 58 -1 -1 -1 -1 -1 
          -1 -1 -1 -1 -1 -1 -1 74 -1 -1 30 30 30 -1 -1 -1 -1 -1 -1 -1 -1 -1 -1 -1 -1 -1 -1 -1 -1 -1 -1 -1 170 170 170 170 170 -1 -1 -1 -1 -1 -1 -1 -1 -1 -1 -1 -1 58 58 58 58 58 58 -1 -1 -1 -1 -1 
          -1 -1 -1 -1 -1 -1 -1 -1 -1 30 30 30 30 30 -1 -1 -1 -1 -1 -1 -1 -1 -1 -1 -1 -1 -1 -1 -1 -1 -1 -1 -1 -1 -1 -1 -1 -1 -1 -1 -1 -1 -1 -1 -1 -1 -1 -1 -1 -1 58 58 58 58 58 -1 -1 -1 -1 -1 
          -1 -1 -1 -1 -1 -1 -1 -1 30 30 30 30 30 30 30 -1 -1 -1 -1 -1 -1 -1 -1 -1 -1 -1 -1 -1 -1 -1 -1 -1 -1 -1 -1 -1 -1 -1 -1 -1 -1 -1 -1 -1 -1 -1 -1 -1 -1 -1 -1 58 -1 -1 -1 -1 -1 -1 -1 -1 
          -1 -1 154 154 154 154 154 -1 -1 30 30 30 30 30 30 -1 -1 -1 -1 -1 -1 -1 -1 -1 -1 -1 -1 -1 -1 -1 223 223 223 -1 -1 -1 -1 -1 -1 -1 -1 -1 -1 -1 -1 -1 -1 -1 -1 -1 -1 -1 -1 -1 -1 -1 -1 -1 -1 -1 
          -1 154 154 154 154 154 154 154 154 154 30 30 30 -1 -1 -1 -1 -1 -1 -1 -1 -1 -1 -1 -1 -1 -1 -1 -1 223 223 223 223 223 -1 -1 -1 -1 -1 -1 -1 218 218 -1 -1 -1 -1 -1 -1 -1 -1 -1 -1 -1 -1 -1 -1 -1 -1 -1 
          -1 154 154 154 154 154 154 154 154 154 154 -1 -1 -1 91 91 -1 -1 -1 -1 -1 -1 -1 -1 -1 -1 -1 -1 -1 223 223 223 223 223 223 -1 -1 -1 -1 -1 218 218 218 -1 -1 -1 -1 -1 -1 -1 -1 -1 -1 -1 -1 -1 -1 -1 -1 -1 
          -1 74 74 74 74 74 74 74 74 74 74 -1 -1 -1 -1 -1 -1 41 41 41 41 41 41 41 -1 -1 -1 -1 -1 142 142 142 209 209 209 209 209 -1 -1 -1 -1 21 21 21 21 21 21 21 21 21 21 -1 -1 -1 -1 -1 -1 -1 -1 -1 
          -1 74 74 74 74 74 74 74 74 74 74 74 -1 -1 -1 -1 -1 -1 41 41 41 41 41 41 -1 -1 -1 142 142 142 142 142 142 -1 -1 -1 -1 -1 -1 -1 -1 21 21 21 21 21 21 21 21 21 -1 -1 58 58 58 -1 -1 -1 -1 -1 
          74 74 74 74 74 74 74 74 74 74 74 74 -1 -1 -1 -1 -1 -1 -1 41 41 41 41 41 -1 -1 142 142 142 142 142 142 142 142 -1 -1 -1 -1 -1 -1 -1 -1 21 21 21 21 21 21 21 58 58 58 58 58 58 58 -1 -1 -1 -1 
          74 74 74 74 74 74 74 74 74 74 74 -1 -1 -1 -1 -1 -1 -1 -1 -1 41 41 41 41 -1 142 142 142 142 142 142 142 142 142 -1 -1 -1 -1 -1 -1 -1 -1 21 21 21 21 21 21 -1 58 58 58 58 58 58 58 58 -1 -1 -1 
          74 74 74 74 74 74 74 74 74 74 74 -1 -1 -1 -1 -1 -1 -1 -1 -1 -1 41 41 -1 -1 142 142 142 142 142 142 142 142 142 142 -1 -1 -1 -1 -1 -1 -1 -1 21 21 21 -1 -1 -1 58 58 58 58 58 58 58 58 -1 -1 -1 
          74 74 74 74 74 74 74 74 74 74 74 -1 -1 -1 -1 -1 -1 -1 -1 -1 -1 -1 -1 -1 -1 -1 142 142 142 142 142 142 142 142 142 -1 -1 -1 -1 -1 -1 -1 -1 -1 -1 -1 -1 -1 58 58 58 58 58 58 58 58 58 -1 -1 -1 
          74 74 74 74 74 74 74 74 74 74 -1 -1 -1 -1 -1 -1 -1 -1 -1 -1 -1 -1 -1 -1 -1 -1 -1 142 142 86 142 142 142 142 86 86 -1 -1 -1 -1 -1 -1 -1 -1 -1 -1 -1 -1 58 58 58 58 58 58 58 58 58 -1 -1 -1 
          -1 -1 74 74 74 74 74 74 74 74 -1 30 -1 -1 -1 -1 -1 -1 -1 -1 -1 -1 -1 -1 -1 -1 -1 -1 86 86 86 86 86 86 86 86 86 -1 -1 -1 -1 -1 -1 -1 -1 -1 -1 -1 58 58 58 58 58 58 58 58 58 -1 -1 -1 
          -1 -1 -1 -1 74 74 74 74 74 -1 30 30 30 30 -1 -1 -1 -1 -1 -1 -1 -1 -1 -1 -1 -1 -1 -1 86 86 86 86 86 170 170 170 170 170 -1 -1 -1 -1 -1 -1 -1 -1 -1 -1 58 58 58 58 58 58 58 58 58 -1 -1 -1 
          -1 -1 -1 -1 -1 -1 74 74 -1 30 30 30 30 30 30 -1 -1 -1 -1 -1 -1 -1 -1 -1 -1 -1 -1 -1 -1 86 86 86 86 170 170 170 170 170 170 -1 -1 -1 -1 -1 -1 -1 -1 -1 -1 58 58 58 58 58 58 58 58 -1 -1 -1 
          -1 -1 -1 -1 -1 -1 -1 -1 30 30 30 30 30 30 30 30 30 -1 -1 -1 -1 -1 -1 -1 -1 -1 -1 -1 -1 -1 -1 -1 170 170 170 170 170 170 170 170 -1 -1 -1 -1 -1 -1 -1 -1 -1 -1 58 58 58 58 58 -1 -1 -1 -1 -1 
          -1 -1 -1 -1 -1 -1 -1 -1 30 30 30 30 30 30 30 30 30 30 -1 -1 -1 -1 -1 -1 -1 -1 -1 -1 -1 -1 -1 -1 170 170 170 170 170 170 170 170 -1 -1 -1 -1 -1 -1 -1 -1 -1 -1 -1 58 58 -1 -1 -1 -1 -1 -1 -1 
          -1 -1 -1 -1 -1 -1 -1 -1 30 30 30 30 30 30 30 30 30 30 -1 -1 -1 -1 -1 -1 -1 -1 -1 -1 -1 223 223 223 223 170 170 170 170 170 -1 -1 -1 -1 -1 -1 -1 -1 -1 -1 -1 -1 -1 -1 -1 -1 -1 -1 -1 -1 -1 -1 
          -1 -1 154 154 154 154 154 154 154 30 30 30 30 30 30 91 91 -1 -1 -1 -1 -1 -1 -1 -1 -1 -1 -1 223 223 223 223 223 223 -1 -1 -1 -1 -1 218 218 218 218 218 -1 -1 -1 -1 -1 -1 -1 -1 -1 -1 -1 -1 -1 -1 -1 -1 
          -1 -1 154 154 154 154 154 154 154 154 30 30 30 91 91 91 91 -1 -1 -1 -1 -1 -1 -1 -1 -1 -1 -1 223 223 223 223 223 223 223 -1 -1 218 218 218 218 218 218 218 -1 -1 -1 -1 -1 -1 -1 -1 -1 -1 -1 -1 -1 -1 -1 -1 
          -1 74 74 74 74 74 74 74 74 74 74 -1 -1 -1 -1 -1 41 41 41 41 41 41 41 41 41 -1 -1 142 142 142 142 142 142 209 209 209 209 -1 -1 -1 -1 21 21 21 21 21 21 21 21 21 21 -1 -1 -1 -1 -1 -1 -1 -1 -1 
          -1 74 74 74 74 74 74 74 74 74 74 74 -1 -1 -1 -1 -1 41 41 41 41 41 41 41 41 -1 142 142 142 142 142 142 142 142 -1 -1 -1 -1 -1 -1 -1 21 21 21 21 21 21 21 21 21 -1 -1 58 58 58 -1 -1 -1 -1 -1 
          74 74 74 74 74 74 74 74 74 74 74 74 -1 -1 -1 -1 -1 41 41 41 41 41 41 41 41 142 142 142 142 142 142 142 142 142 -1 -1 -1 -1 -1 -1 -1 -1 21 21 21 21 21 21 21 58 58 58 58 58 58 58 -1 -1 -1 -1 
          74 74 74 74 74 74 74 74 74 74 74 -1 -1 -1 -1 -1 -1 -1 41 41 41 41 41 41 142 142 142 142 142 142 142 142 142 142 142 -1 -1 -1 -1 -1 -1 -1 21 21 21 21 21 21 58 58 58 58 58 58 58 58 58 -1 -1 -1 
          74 74 74 74 74 74 74 74 74 74 74 -1 -1 -1 -1 -1 -1 -1 -1 41 41 41 41 41 142 142 142 142 142 142 142 142 142 142 86 86 -1 -1 -1 -1 -1 -1 -1 21 21 21 -1 58 58 58 58 58 58 58 58 58 58 -1 -1 -1 
          74 74 74 74 74 74 74 74 74 74 -1 -1 -1 -1 -1 -1 -1 -1 -1 -1 -1 -1 -1 -1 -1 142 142 142 142 142 142 142 142 142 86 86 86 -1 -1 -1 -1 -1 -1 -1 -1 -1 -1 58 58 58 58 58 58 58 58 58 58 58 -1 -1 
          74 74 74 74 74 74 74 74 74 74 -1 30 30 -1 -1 -1 -1 -1 -1 -1 -1 -1 -1 -1 -1 -1 142 142 142 142 142 142 86 86 86 86 86 -1 -1 -1 -1 -1 -1 -1 -1 -1 -1 58 58 58 58 58 58 58 58 58 58 58 -1 -1 
          -1 74 74 74 74 74 74 74 74 -1 30 30 30 30 30 -1 -1 -1 -1 -1 -1 -1 -1 -1 -1 -1 -1 142 142 86 86 86 86 86 86 86 86 170 -1 -1 -1 -1 -1 -1 -1 -1 -1 58 58 58 58 58 58 58 58 58 58 58 -1 -1 
          -1 -1 -1 74 74 74 74 74 74 30 30 30 30 30 30 30 -1 -1 -1 -1 -1 -1 -1 -1 -1 -1 -1 -1 86 86 86 86 86 86 86 86 170 170 170 -1 -1 -1 -1 -1 -1 -1 -1 -1 58 58 58 58 58 58 58 58 58 58 -1 -1 
          -1 -1 -1 -1 -1 -1 -1 74 30 30 30 30 30 30 30 30 30 30 -1 -1 -1 -1 -1 -1 -1 -1 -1 -1 86 86 86 86 86 170 170 170 170 170 170 170 -1 -1 -1 -1 -1 -1 -1 -1 -1 58 58 58 58 58 58 58 58 58 -1 -1 
          -1 -1 -1 -1 -1 -1 -1 -1 30 30 30 30 30 30 30 30 30 30 -1 -1 -1 -1 -1 -1 -1 -1 -1 -1 -1 86 86 86 170 170 170 170 170 170 170 170 170 -1 -1 -1 -1 236 -1 -1 -1 -1 58 58 58 58 58 -1 -1 -1 -1 -1 
          -1 -1 -1 -1 -1 -1 -1 30 30 30 30 30 30 30 30 30 30 30 30 -1 -1 -1 -1 -1 -1 -1 -1 -1 -1 -1 -1 -1 170 170 170 170 170 170 170 170 170 -1 -1 -1 -1 236 236 -1 -1 -1 -1 58 58 -1 -1 -1 -1 -1 -1 -1 
          -1 -1 -1 -1 -1 -1 -1 -1 30 30 30 30 30 30 30 30 30 30 30 -1 -1 -1 -1 -1 -1 -1 -1 -1 -1 223 223 223 223 170 170 170 170 170 170 170 -1 -1 -1 -1 -1 -1 -1 -1 -1 -1 -1 -1 -1 -1 -1 -1 -1 -1 -1 -1 
          -1 -1 154 -1 -1 -1 -1 -1 30 30 30 30 30 30 30 30 30 30 -1 -1 -1 -1 -1 -1 -1 -1 -1 -1 223 223 223 223 223 223 170 170 170 170 170 218 218 218 218 -1 -1 -1 -1 -1 -1 -1 -1 -1 -1 -1 -1 -1 -1 -1 -1 -1 
          -1 -1 154 154 154 154 154 154 154 30 30 30 30 30 91 91 91 91 -1 -1 -1 -1 -1 -1 -1 -1 -1 223 223 223 223 223 223 223 223 170 170 218 218 218 218 218 218 218 -1 -1 -1 -1 -1 -1 -1 -1 -1 -1 -1 -1 -1 -1 -1 -1 
          -1 74 74 74 74 74 74 74 74 74 74 -1 -1 -1 -1 41 41 41 41 41 41 41 41 41 41 41 -1 -1 142 142 142 142 142 5 5 5 5 5 -1 270 270 21 21 21 21 21 21 21 21 21 -1 -1 -1 -1 -1 -1 -1 -1 -1 -1 
          74 74 74 74 74 74 74 74 74 74 74 -1 -1 -1 -1 41 41 41 41 41 41 41 41 41 41 -1 142 142 142 142 142 142 142 142 5 5 5 5 270 270 270 270 21 21 21 21 21 21 21 21 -1 -1 58 58 58 -1 -1 -1 -1 -1 
          74 74 74 74 74 74 74 74 74 74 74 -1 -1 -1 -1 -1 41 41 41 41 41 41 41 41 41 142 142 142 142 142 142 142 142 142 142 86 -1 -1 -1 270 270 270 270 21 21 21 21 21 21 58 58 58 58 58 58 58 -1 -1 -1 -1 
          74 74 74 74 74 74 74 74 74 74 74 -1 -1 -1 -1 -1 -1 41 41 41 41 41 41 41 -1 142 142 142 142 142 142 142 142 142 86 86 86 -1 -1 270 270 270 270 270 21 21 21 58 58 58 58 58 58 58 58 58 58 -1 -1 -1 
          74 74 74 74 74 74 74 74 74 74 74 -1 -1 -1 -1 -1 -1 -1 -1 41 41 41 41 -1 -1 142 142 142 142 142 142 142 142 142 86 86 86 -1 -1 270 270 270 270 270 270 -1 58 58 58 58 58 58 58 58 58 58 58 -1 -1 -1 
          74 74 74 74 74 74 74 74 74 74 -1 -1 30 -1 -1 -1 -1 -1 -1 -1 -1 -1 -1 -1 -1 142 142 142 142 142 142 142 142 86 86 86 86 -1 -1 270 270 270 270 270 -1 -1 58 58 58 58 58 58 58 58 58 58 58 58 -1 -1 
          74 74 74 74 74 74 74 74 74 74 -1 30 30 30 30 -1 -1 -1 -1 -1 -1 -1 -1 -1 -1 142 142 142 142 142 142 86 86 86 86 86 86 -1 -1 -1 270 270 270 -1 -1 -1 58 58 58 58 58 58 58 58 58 58 58 58 58 -1 
          -1 74 74 74 74 74 74 74 74 -1 30 30 30 30 30 30 -1 -1 -1 -1 -1 -1 -1 -1 -1 -1 142 142 142 86 86 86 86 86 86 86 170 170 170 -1 -1 -1 -1 -1 236 236 236 58 58 58 58 58 58 58 58 58 58 58 58 -1 
          -1 -1 -1 -1 74 74 74 74 -1 30 30 30 30 30 30 30 30 -1 -1 -1 -1 -1 -1 -1 -1 -1 -1 142 86 86 86 86 86 86 86 86 170 170 170 170 -1 -1 -1 -1 236 236 236 236 58 58 58 58 58 58 58 58 58 58 58 -1 
          -1 -1 -1 -1 -1 -1 -1 -1 30 30 30 30 30 30 30 30 30 30 -1 -1 -1 -1 -1 -1 -1 -1 -1 -1 86 86 86 86 86 86 170 170 170 170 170 170 170 -1 -1 -1 236 236 236 236 236 58 58 58 58 58 58 58 58 58 -1 -1 
          -1 -1 -1 -1 -1 -1 -1 30 30 30 30 30 30 30 30 30 30 30 -1 -1 -1 -1 -1 -1 -1 -1 -1 -1 86 86 86 86 86 170 170 170 170 170 170 170 170 -1 -1 -1 236 236 236 236 -1 -1 58 58 58 58 58 58 -1 -1 -1 -1 
          -1 -1 -1 -1 -1 -1 -1 30 30 30 30 30 30 30 30 30 30 30 30 -1 -1 -1 -1 -1 -1 -1 -1 -1 -1 86 86 86 170 170 170 170 170 170 170 170 170 -1 -1 -1 -1 236 236 236 -1 -1 -1 58 58 -1 -1 -1 -1 -1 -1 -1 
          -1 -1 -1 -1 -1 -1 -1 30 30 30 30 30 30 30 30 30 30 30 30 -1 -1 -1 -1 -1 -1 -1 -1 -1 -1 223 223 223 170 170 170 170 170 170 170 170 170 -1 -1 -1 -1 -1 -1 -1 -1 -1 -1 -1 -1 -1 -1 -1 -1 -1 -1 -1 
          -1 -1 -1 -1 -1 -1 -1 -1 30 30 30 30 30 30 30 30 30 30 -1 -1 -1 -1 -1 -1 -1 -1 -1 223 223 223 223 223 223 170 170 170 170 170 170 218 218 218 218 -1 -1 -1 -1 -1 -1 -1 -1 -1 -1 -1 -1 -1 -1 -1 -1 -1 
          -1 -1 -1 154 -1 -1 -1 -1 -1 30 30 30 30 30 30 30 30 30 -1 -1 -1 -1 -1 -1 -1 -1 -1 223 223 223 223 223 223 223 170 170 170 218 218 218 218 218 218 218 -1 -1 -1 -1 -1 -1 -1 -1 -1 -1 -1 -1 -1 -1 -1 -1 
          -1 74 74 74 74 74 74 74 74 74 -1 -1 -1 -1 -1 41 41 41 41 41 41 41 41 41 41 41 -1 -1 142 5 5 5 5 5 5 5 5 5 5 270 270 21 21 21 21 21 21 21 21 21 -1 -1 -1 -1 -1 -1 -1 -1 -1 -1 
          -1 74 74 74 74 74 74 74 74 74 74 -1 -1 -1 -1 41 41 41 41 41 41 41 41 41 41 -1 -1 142 142 142 142 142 142 142 5 5 5 5 270 270 270 270 270 21 21 21 21 21 21 21 -1 -1 58 58 58 -1 -1 -1 -1 -1 
          -1 74 74 74 74 74 74 74 74 74 74 -1 -1 -1 -1 41 41 41 41 41 41 41 41 41 41 -1 142 142 142 142 142 142 142 142 86 86 5 5 270 270 270 270 270 270 270 21 21 21 21 58 58 58 58 58 58 58 -1 -1 -1 -1 
          74 74 74 74 74 74 74 74 74 74 74 -1 -1 -1 -1 -1 41 41 41 41 41 41 41 41 -1 142 142 142 142 142 142 142 142 142 86 86 86 -1 270 270 270 270 270 270 270 270 -1 58 58 58 58 58 58 58 58 58 -1 -1 -1 -1 
          74 74 74 74 74 74 74 74 74 74 -1 -1 -1 -1 -1 -1 -1 -1 -1 41 41 41 41 -1 -1 142 142 142 142 142 142 142 142 86 86 86 86 -1 270 270 270 270 270 270 270 236 58 58 58 58 58 58 58 58 58 58 58 -1 -1 -1 
          74 74 74 74 74 74 74 74 74 74 -1 30 30 30 30 -1 -1 -1 -1 -1 -1 -1 -1 -1 -1 142 142 142 142 142 142 142 86 86 86 86 86 -1 -1 270 270 270 270 270 236 236 58 58 58 58 58 58 58 58 58 58 58 58 -1 -1 
          -1 74 74 74 74 74 74 74 74 -1 30 30 30 30 30 30 -1 -1 -1 -1 -1 -1 -1 -1 -1 -1 142 142 142 142 142 86 86 86 86 86 170 170 170 270 270 270 270 236 236 236 236 58 58 58 58 58 58 58 58 58 58 58 58 -1 
          -1 -1 -1 74 74 74 74 74 74 30 30 30 30 30 30 30 -1 -1 -1 -1 -1 -1 -1 -1 -1 -1 142 142 142 142 86 86 86 86 86 86 170 170 170 170 270 270 -1 236 236 236 236 236 58 58 58 58 58 58 58 58 58 58 58 -1 
          -1 -1 -1 -1 -1 -1 -1 74 30 30 30 30 30 30 30 30 30 -1 -1 -1 -1 -1 -1 -1 -1 -1 -1 142 142 86 86 86 86 86 86 170 170 170 170 170 -1 -1 -1 236 236 236 236 236 236 58 58 58 58 58 58 58 58 58 58 -1 
          -1 -1 -1 -1 -1 -1 -1 -1 30 30 30 30 30 30 30 30 30 30 -1 -1 -1 -1 -1 -1 -1 -1 -1 -1 86 86 86 86 86 86 170 170 170 170 170 170 170 -1 -1 236 236 236 236 236 236 58 58 58 58 58 58 58 58 58 -1 -1 
          -1 -1 -1 -1 -1 -1 -1 30 30 30 30 30 30 30 30 30 30 30 -1 -1 -1 -1 -1 -1 -1 -1 -1 -1 86 86 86 86 86 170 170 170 170 170 170 170 170 -1 -1 -1 236 236 236 236 236 58 58 58 58 58 58 58 -1 -1 -1 -1 
          -1 -1 -1 -1 -1 -1 -1 30 30 30 30 30 30 30 30 30 30 30 30 -1 -1 -1 -1 -1 -1 -1 -1 -1 -1 86 86 86 170 170 170 170 170 170 170 170 170 -1 -1 -1 236 236 236 236 236 -1 58 58 58 -1 -1 -1 -1 -1 -1 -1 
          -1 -1 -1 -1 -1 -1 -1 30 30 30 30 30 30 30 30 30 30 30 30 -1 -1 -1 -1 -1 -1 -1 -1 -1 -1 86 86 86 170 170 170 170 170 170 170 170 170 -1 -1 -1 -1 -1 236 236 -1 -1 -1 -1 -1 -1 -1 -1 -1 -1 -1 -1 
          -1 -1 -1 -1 -1 -1 -1 -1 30 30 30 30 30 30 30 30 30 30 -1 -1 -1 -1 -1 -1 -1 -1 223 223 223 223 223 223 223 170 170 170 170 170 170 218 218 218 218 -1 -1 -1 -1 -1 -1 -1 -1 -1 -1 -1 -1 -1 -1 -1 -1 -1 
          -1 -1 -1 -1 -1 -1 -1 -1 30 30 30 30 30 30 30 30 30 -1 -1 -1 -1 -1 -1 -1 -1 -1 223 223 223 223 223 223 223 223 170 170 170 218 218 218 218 218 218 218 -1 -1 -1 -1 -1 -1 -1 -1 -1 -1 -1 -1 -1 -1 -1 -1 
          -1 -1 74 74 74 74 74 74 -1 -1 -1 -1 -1 -1 -1 41 41 41 41 41 41 41 41 41 41 41 -1 -1 5 5 5 5 5 5 5 5 5 5 5 270 270 270 270 21 21 21 21 21 21 21 -1 -1 -1 -1 -1 -1 -1 -1 -1 -1 
          -1 -1 74 74 74 74 74 74 74 74 -1 -1 -1 -1 41 41 41 41 41 41 41 41 41 41 41 -1 -1 142 142 142 142 5 5 5 5 5 5 5 270 270 270 270 270 270 270 21 21 21 21 -1 -1 -1 58 58 -1 -1 -1 -1 -1 -1 
          -1 -1 74 74 74 74 74 74 74 74 -1 -1 -1 -1 41 41 41 41 41 41 41 41 41 41 41 -1 142 142 142 142 142 142 142 142 166 5 5 5 270 270 270 270 270 270 270 -1 -1 -1 -1 58 58 58 58 58 58 -1 -1 -1 -1 -1 
          -1 74 74 74 74 74 74 74 74 74 -1 -1 -1 -1 -1 41 41 41 41 41 41 41 41 41 -1 142 142 142 142 142 142 142 142 142 86 86 166 166 270 270 270 270 270 270 270 270 -1 58 58 58 58 58 58 58 58 58 -1 -1 -1 -1 
          -1 74 74 74 74 74 74 74 74 74 -1 -1 -1 -1 -1 -1 -1 -1 -1 -1 41 41 41 -1 -1 142 142 142 142 142 142 142 142 86 86 86 166 166 270 270 270 270 270 270 270 236 236 58 58 58 58 58 58 58 58 58 58 -1 -1 -1 
          -1 74 74 74 74 74 74 74 74 -1 -1 30 30 30 -1 -1 -1 -1 -1 -1 -1 -1 -1 -1 -1 -1 142 142 142 142 142 142 86 86 86 86 166 166 270 270 270 270 270 236 236 236 236 236 58 58 58 58 58 58 58 58 58 58 -1 -1 
          -1 -1 74 74 74 74 74 74 74 -1 30 30 30 30 30 -1 -1 -1 -1 -1 -1 -1 -1 -1 -1 -1 142 142 142 142 86 86 86 86 86 86 170 170 170 270 270 270 270 236 236 236 236 236 58 58 58 58 58 58 58 58 58 58 58 -1 
          -1 -1 -1 -1 -1 74 74 74 -1 30 30 30 30 30 30 30 -1 -1 -1 -1 -1 -1 -1 -1 -1 -1 142 142 142 142 86 86 86 86 86 170 170 170 170 170 270 270 -1 236 236 236 236 236 236 58 58 58 58 58 58 58 58 58 58 -1 
          -1 -1 -1 -1 -1 -1 122 122 30 30 30 30 30 30 30 30 30 -1 -1 -1 -1 -1 -1 -1 -1 -1 -1 142 142 86 86 86 86 86 86 170 170 170 170 170 -1 -1 -1 236 236 236 236 236 236 58 58 58 58 58 58 58 58 58 58 -1 
          -1 -1 -1 -1 -1 122 122 122 30 30 30 30 30 30 30 30 30 -1 -1 -1 -1 -1 -1 -1 -1 -1 -1 -1 86 86 86 86 86 86 170 170 170 170 170 170 -1 -1 -1 236 236 236 236 236 236 58 58 58 58 58 58 58 58 58 -1 -1 
          -1 -1 -1 -1 -1 122 122 30 30 30 30 30 30 30 30 30 30 30 -1 -1 -1 -1 -1 -1 -1 -1 -1 -1 86 86 86 86 86 170 170 170 170 170 170 170 -1 -1 -1 236 236 236 236 236 236 236 58 58 58 58 58 58 -1 -1 -1 -1 
          -1 -1 -1 -1 122 122 -1 30 30 30 30 30 30 30 30 30 30 30 -1 -1 -1 -1 -1 -1 -1 -1 -1 -1 -1 86 86 86 170 170 170 170 170 170 170 170 170 250 250 236 236 236 236 236 236 -1 58 58 58 -1 -1 -1 -1 -1 -1 -1 
          -1 -1 -1 122 122 -1 -1 30 30 30 30 30 30 30 30 30 30 30 -1 -1 -1 -1 -1 -1 -1 -1 -1 -1 -1 86 86 86 170 170 170 170 170 170 170 170 250 250 250 250 250 250 236 236 -1 -1 -1 -1 -1 -1 -1 -1 -1 -1 -1 -1 
          -1 -1 -1 -1 -1 -1 -1 -1 30 30 30 30 30 30 30 30 30 30 -1 -1 -1 -1 -1 -1 -1 -1 -1 223 223 223 223 223 223 170 170 170 170 170 170 218 250 218 250 250 250 250 250 -1 -1 -1 -1 -1 -1 -1 -1 -1 -1 -1 -1 -1 
          -1 -1 -1 -1 -1 -1 -1 -1 30 30 30 30 30 30 30 30 30 -1 -1 -1 -1 -1 -1 -1 -1 -1 223 223 223 223 223 223 223 223 170 170 170 218 218 218 218 218 218 218 -1 -1 -1 -1 -1 -1 -1 -1 -1 -1 -1 -1 -1 -1 -1 -1 
          -1 -1 -1 74 74 74 74 -1 -1 -1 -1 -1 -1 -1 41 41 41 41 41 41 41 41 41 41 41 41 -1 -1 5 5 5 5 5 5 5 5 5 5 -1 270 270 270 270 270 270 -1 21 21 21 21 -1 -1 -1 -1 -1 -1 -1 -1 -1 -1 
          -1 -1 -1 74 74 74 74 74 -1 -1 -1 -1 -1 -1 41 41 41 41 41 41 41 41 41 41 41 -1 -1 142 142 5 5 5 5 5 5 5 5 166 166 270 270 270 270 270 270 -1 -1 -1 -1 -1 -1 -1 58 58 -1 -1 -1 -1 -1 -1 
          -1 -1 -1 74 74 74 74 74 74 -1 -1 -1 -1 -1 41 41 41 41 41 41 41 41 41 41 -1 -1 142 142 142 142 142 142 5 5 166 166 166 166 270 270 270 270 270 270 270 -1 -1 -1 -1 -1 58 58 58 58 58 -1 -1 -1 -1 -1 
          -1 -1 74 74 74 74 74 74 74 -1 -1 -1 -1 -1 -1 -1 41 41 41 41 41 41 41 41 -1 -1 142 142 142 142 142 142 142 166 166 166 166 166 270 270 270 270 270 270 270 -1 -1 58 58 58 58 58 58 58 58 58 -1 -1 -1 -1 
          -1 -1 74 74 74 74 74 74 74 -1 -1 -1 -1 -1 -1 -1 -1 -1 -1 -1 -1 41 41 -1 -1 -1 142 142 142 142 142 142 142 86 166 166 166 166 166 270 270 270 270 270 270 236 236 58 58 58 58 58 58 58 58 58 58 -1 -1 -1 
          -1 -1 74 74 74 74 74 74 74 -1 -1 -1 30 30 -1 -1 -1 -1 -1 -1 -1 -1 -1 -1 -1 -1 142 142 142 142 142 86 86 86 86 166 166 166 166 270 270 270 270 270 236 236 236 236 58 58 58 58 58 58 58 58 58 58 -1 -1 
          -1 -1 -1 -1 74 74 74 74 -1 30 30 30 30 30 30 -1 -1 -1 -1 -1 -1 -1 -1 -1 -1 -1 -1 142 142 142 86 86 86 86 86 86 166 170 166 270 270 270 270 236 236 236 236 236 236 58 58 58 58 58 58 58 58 58 -1 -1 
          -1 -1 -1 -1 -1 122 122 122 122 30 30 30 30 30 30 30 -1 -1 -1 -1 -1 -1 -1 -1 -1 -1 -1 142 142 86 86 86 86 86 86 170 170 170 170 -1 -1 270 236 236 236 236 236 236 236 236 58 58 58 58 58 58 58 58 -1 -1 
          -1 -1 -1 -1 122 122 122 122 30 30 30 30 30 30 30 30 30 -1 -1 -1 -1 -1 -1 -1 -1 -1 -1 142 142 86 86 86 86 86 86 170 170 170 170 170 -1 -1 236 236 236 236 236 236 236 58 58 58 58 58 58 58 58 58 -1 -1 
          -1 -1 -1 122 122 122 122 122 30 30 30 30 30 30 30 30 30 -1 -1 -1 -1 -1 -1 -1 -1 -1 -1 -1 86 86 86 86 86 170 170 170 170 170 170 170 -1 250 250 236 236 236 236 236 236 236 58 58 58 58 58 58 58 -1 -1 -1 
          -1 -1 -1 122 122 122 122 122 30 30 30 30 30 30 30 30 30 30 -1 -1 -1 -1 -1 -1 -1 -1 -1 -1 86 86 86 86 86 170 170 170 170 170 170 170 250 250 250 236 236 236 236 236 236 236 58 58 58 58 58 58 -1 -1 -1 -1 
          -1 -1 122 122 122 122 122 30 30 30 30 30 30 30 30 30 30 30 -1 -1 -1 -1 -1 -1 -1 -1 -1 -1 86 86 86 86 170 170 170 170 170 170 170 170 250 250 250 250 250 236 236 236 236 236 58 58 58 -1 -1 -1 -1 -1 -1 -1 
          -1 -1 122 122 122 122 122 30 30 30 30 30 30 30 30 30 30 30 -1 -1 -1 -1 -1 -1 -1 -1 -1 -1 -1 86 86 170 170 170 170 170 170 170 170 170 250 250 250 250 250 250 250 250 236 -1 -1 -1 -1 -1 -1 -1 -1 -1 -1 -1 
          -1 122 122 122 122 122 122 30 30 30 30 30 30 30 30 30 30 -1 -1 -1 -1 -1 -1 -1 -1 -1 -1 -1 223 223 223 223 223 170 170 170 170 170 170 250 250 250 250 250 250 250 250 250 -1 -1 -1 -1 -1 -1 -1 -1 -1 -1 -1 -1 
          -1 122 122 122 122 122 -1 -1 30 30 30 30 30 30 30 30 30 -1 -1 -1 -1 -1 -1 -1 -1 -1 -1 223 223 223 223 223 223 223 170 170 170 218 218 218 218 218 250 250 250 250 250 250 -1 -1 -1 -1 -1 -1 -1 -1 -1 -1 -1 -1 
          -1 -1 -1 -1 -1 -1 -1 -1 -1 -1 -1 -1 -1 -1 -1 41 41 41 41 41 41 41 41 41 41 -1 -1 5 5 5 5 5 5 5 5 57 5 5 166 166 270 270 270 270 -1 -1 -1 -1 -1 -1 -1 -1 -1 -1 -1 -1 -1 -1 -1 -1 
          -1 -1 -1 -1 74 74 74 -1 -1 -1 -1 -1 -1 -1 -1 41 41 41 41 41 41 41 41 41 41 -1 -1 142 5 5 5 5 5 5 5 57 166 166 166 166 270 270 270 270 270 -1 -1 -1 -1 -1 -1 -1 58 58 -1 -1 -1 -1 -1 -1 
          -1 -1 -1 -1 74 74 74 74 -1 -1 -1 -1 -1 -1 -1 41 41 41 41 41 41 41 41 41 -1 -1 142 142 142 142 5 5 5 166 166 166 166 166 166 270 270 270 270 270 270 -1 -1 -1 -1 -1 58 58 58 58 58 -1 -1 -1 -1 -1 
          -1 -1 -1 -1 74 74 74 74 74 -1 -1 -1 -1 -1 -1 -1 -1 41 41 41 41 41 41 41 -1 -1 142 142 142 142 142 142 166 166 166 166 166 166 166 270 270 270 270 270 270 -1 -1 -1 58 58 58 58 58 58 58 58 -1 -1 -1 -1 
          -1 -1 -1 74 74 74 74 74 222 222 -1 -1 -1 -1 -1 -1 -1 -1 -1 -1 -1 -1 -1 -1 -1 -1 142 142 142 142 142 142 166 166 166 166 166 166 166 270 270 270 270 270 270 236 236 236 58 58 58 58 58 58 58 58 58 -1 -1 -1 
          -1 -1 -1 74 74 74 74 74 222 222 -1 -1 -1 -1 -1 -1 -1 -1 -1 -1 -1 -1 -1 -1 -1 -1 -1 142 142 86 86 86 86 86 166 166 166 166 166 270 270 270 270 270 236 236 236 236 236 58 58 58 58 58 58 58 58 -1 -1 -1 
          -1 -1 -1 -1 -1 -1 74 -1 222 222 -1 30 30 30 30 -1 -1 -1 -1 -1 -1 -1 -1 -1 -1 -1 -1 142 142 86 86 86 86 86 86 166 166 166 166 166 270 270 270 236 236 236 236 236 236 236 58 58 58 58 58 58 58 -1 -1 -1 
          -1 -1 -1 -1 122 122 122 122 122 30 30 30 30 30 30 30 -1 -1 -1 -1 -1 -1 -1 -1 -1 -1 -1 -1 86 86 86 86 86 86 86 86 166 166 166 -1 -1 -1 236 236 236 236 236 236 236 236 58 58 58 58 58 58 58 -1 -1 -1 
          -1 -1 -1 122 122 122 122 122 122 30 30 30 30 30 30 30 -1 -1 -1 -1 -1 -1 -1 -1 -1 -1 -1 -1 86 86 86 86 86 86 86 170 170 170 170 -1 -1 250 236 236 236 236 236 236 236 236 58 58 58 58 58 58 -1 -1 -1 -1 
          -1 -1 122 122 122 122 122 122 30 30 30 30 30 30 30 30 30 -1 -1 -1 -1 -1 -1 -1 -1 -1 -1 -1 86 86 86 86 86 86 170 170 170 170 170 170 -1 250 250 236 236 236 236 236 236 236 58 58 58 58 58 58 -1 -1 -1 -1 
          -1 122 122 122 122 122 122 122 30 30 30 30 30 30 30 30 30 30 -1 -1 -1 -1 -1 -1 -1 -1 -1 -1 86 86 86 86 170 170 170 170 170 170 170 170 250 250 250 250 236 236 236 236 236 236 58 58 58 58 58 58 -1 -1 -1 -1 
          -1 122 122 122 122 122 122 122 30 30 30 30 30 30 30 30 30 30 -1 -1 -1 -1 -1 -1 -1 -1 -1 -1 86 86 86 86 170 170 170 170 170 170 170 170 250 250 250 250 250 250 236 236 236 236 58 58 58 -1 -1 -1 -1 -1 -1 -1 
          -1 122 122 122 122 122 122 122 30 30 30 30 30 30 30 30 30 30 -1 -1 -1 -1 -1 -1 -1 -1 -1 -1 -1 86 86 86 170 170 170 170 170 170 170 170 250 250 250 250 250 250 250 250 236 -1 -1 -1 -1 -1 -1 -1 -1 -1 -1 -1 
          -1 122 122 122 122 122 122 122 30 30 30 30 30 30 30 30 30 -1 -1 -1 -1 -1 -1 -1 -1 -1 -1 -1 -1 -1 -1 -1 170 170 170 170 170 170 170 250 250 250 250 250 250 250 250 250 -1 -1 -1 -1 -1 -1 -1 -1 -1 -1 -1 -1 
          -1 122 122 122 122 122 122 122 30 30 30 30 30 30 30 30 -1 -1 -1 -1 -1 -1 -1 -1 -1 -1 -1 -1 -1 -1 -1 223 223 223 170 170 170 170 218 218 218 250 250 250 250 250 250 250 -1 -1 -1 -1 -1 -1 -1 -1 -1 -1 -1 -1 
          -1 -1 -1 -1 -1 -1 -1 -1 -1 -1 -1 -1 -1 -1 -1 -1 41 41 41 41 41 41 41 41 41 -1 -1 5 5 5 5 5 5 5 57 57 57 166 166 166 270 270 270 270 -1 -1 -1 -1 -1 -1 -1 -1 -1 -1 -1 -1 -1 -1 -1 -1 
          -1 -1 -1 -1 -1 -1 -1 222 -1 -1 -1 -1 -1 -1 -1 -1 41 41 41 41 41 41 41 41 41 -1 -1 5 5 5 5 5 5 5 57 57 166 166 166 166 270 270 270 270 -1 -1 -1 -1 -1 -1 -1 -1 -1 58 -1 -1 -1 -1 -1 -1 
          -1 -1 -1 -1 -1 -1 -1 222 222 222 -1 -1 -1 -1 -1 -1 41 41 41 41 41 41 41 41 -1 -1 -1 142 142 142 5 5 5 166 166 166 166 166 166 166 270 270 270 270 270 -1 -1 -1 -1 -1 58 58 58 58 58 -1 -1 -1 -1 -1 
          -1 -1 -1 -1 -1 74 74 222 222 222 222 -1 -1 -1 -1 -1 -1 -1 41 41 41 41 41 41 -1 -1 -1 142 142 142 142 142 166 166 166 166 166 166 166 270 270 270 270 270 270 -1 -1 -1 -1 -1 58 58 58 58 58 58 -1 -1 -1 -1 
          -1 -1 -1 -1 -1 74 74 222 222 222 222 -1 -1 -1 -1 -1 -1 -1 -1 -1 -1 -1 190 -1 -1 -1 -1 142 142 142 142 86 166 166 166 166 166 166 166 270 270 270 270 270 270 236 236 -1 -1 -1 58 58 58 58 58 58 -1 -1 -1 -1 
          -1 -1 -1 -1 -1 -1 222 222 222 222 222 222 -1 -1 -1 -1 -1 -1 -1 -1 -1 -1 -1 -1 -1 -1 -1 86 86 86 86 86 166 166 166 166 166 166 166 166 270 270 270 270 236 236 236 236 236 236 58 58 58 58 58 58 -1 -1 -1 -1 
          -1 -1 -1 -1 -1 -1 222 222 222 222 222 -1 -1 -1 -1 -1 -1 -1 -1 -1 -1 -1 -1 -1 -1 -1 -1 86 86 86 86 86 86 86 166 166 166 166 166 166 -1 270 270 236 236 236 236 236 236 236 58 58 58 58 58 58 -1 -1 -1 -1 
          -1 -1 122 122 122 122 122 122 122 222 -1 30 30 30 30 -1 -1 -1 -1 -1 -1 -1 -1 -1 -1 -1 -1 -1 86 86 86 86 86 86 86 166 166 166 166 -1 -1 -1 236 236 236 236 236 236 236 236 58 58 58 58 58 -1 -1 -1 -1 -1 
          -1 122 122 122 122 122 122 122 122 30 30 30 30 30 30 30 -1 -1 -1 -1 -1 -1 -1 -1 -1 -1 -1 -1 86 86 86 86 86 86 86 86 170 170 166 -1 -1 250 250 236 236 236 236 236 236 236 58 58 58 58 58 -1 -1 -1 -1 -1 
          -1 122 122 122 122 122 122 122 122 30 30 30 30 30 30 30 30 -1 -1 -1 -1 -1 -1 -1 -1 -1 -1 -1 86 86 86 86 86 86 86 170 170 170 170 -1 -1 250 250 236 236 236 236 236 236 236 58 58 58 58 58 -1 -1 -1 -1 -1 
          -1 122 122 122 122 122 122 122 122 30 30 30 30 30 30 30 30 -1 -1 -1 -1 -1 -1 -1 -1 -1 -1 -1 -1 86 86 170 170 170 170 170 170 170 170 -1 250 250 250 250 250 236 236 236 236 236 58 58 58 58 -1 -1 -1 -1 -1 -1 