<?xml version="1.0"?>
<VTKFile type="RectilinearGrid" version="0.1" byte_order="LittleEndian">
  <RectilinearGrid WholeExtent="0 60 15 30 0 60">
    <Piece Extent="0 60 15 30 0 60">
      <CellData Scalars="grain_id">
        <DataArray type="Int64" Name="grain_id" format="ascii">
          -1 -1 -1 -1 -1 -1 -1 -1 -1 -1 -1 -1 -1 -1 -1 -1 -1 -1 234 234 234 234 234 -1 -1 -1 -1 -1 -1 12 12 -1 -1 116 116 -1 -1 -1 -1 -1 -1 -1 -1 -1 -1 -1 -1 -1 -1 -1 -1 -1 -1 -1 -1 -1 -1 -1 -1 -1 
          -1 -1 -1 -1 -1 178 178 178 -1 -1 -1 -1 -1 -1 -1 234 234 234 234 234 234 234 234 234 -1 -1 -1 -1 -1 -1 -1 -1 -1 -1 -1 -1 -1 -1 -1 -1 -1 -1 -1 -1 -1 -1 -1 -1 -1 -1 -1 -1 -1 -1 -1 -1 -1 -1 -1 -1 
          -1 -1 -1 -1 -1 -1 -1 -1 -1 -1 -1 -1 -1 -1 -1 234 234 234 234 234 234 234 234 234 -1 -1 -1 -1 -1 -1 -1 -1 -1 -1 -1 -1 -1 -1 -1 -1 -1 -1 -1 -1 -1 -1 -1 -1 -1 -1 -1 -1 -1 -1 -1 -1 -1 -1 -1 101 
          -1 -1 -1 -1 -1 -1 -1 -1 -1 -1 -1 -1 -1 -1 -1 234 234 234 234 234 234 234 234 234 -1 -1 -1 -1 -1 -1 -1 -1 -1 -1 -1 -1 -1 -1 -1 -1 -1 -1 -1 -1 -1 -1 -1 -1 -1 -1 -1 -1 -1 -1 -1 -1 -1 101 101 101 
          -1 -1 -1 -1 -1 -1 -1 -1 -1 -1 -1 -1 -1 -1 -1 234 234 234 234 234 234 234 234 234 -1 -1 -1 -1 -1 -1 -1 -1 -1 -1 -1 -1 -1 -1 -1 -1 -1 -1 -1 -1 -1 -1 -1 -1 -1 -1 -1 -1 -1 -1 -1 -1 101 101 101 101 
          -1 -1 -1 -1 -1 -1 -1 -1 -1 -1 -1 -1 -1 -1 -1 234 234 234 234 234 234 234 234 234 -1 -1 -1 -1 -1 -1 -1 -1 -1 -1 -1 -1 -1 -1 -1 -1 -1 -1 -1 -1 -1 -1 -1 -1 -1 -1 -1 -1 -1 -1 101 101 101 101 101 101 
          -1 -1 -1 -1 -1 -1 -1 -1 -1 -1 -1 -1 -1 -1 -1 234 234 234 234 234 234 234 234 234 -1 -1 -1 -1 -1 -1 -1 -1 -1 -1 -1 -1 -1 -1 225 225 225 225 225 225 -1 -1 -1 -1 -1 -1 -1 -1 -1 101 101 101 101 101 101 101 
          -1 -1 -1 -1 -1 -1 -1 -1 -1 -1 -1 -1 -1 -1 -1 234 234 234 234 234 234 234 234 234 -1 -1 -1 -1 -1 -1 -1 209 209 209 209 209 225 225 225 225 225 225 225 225 -1 -1 -1 -1 -1 -1 -1 -1 -1 101 101 101 101 101 101 101 
          -1 -1 -1 -1 -1 -1 -1 -1 -1 -1 -1 -1 -1 -1 -1 -1 234 234 234 234 234 -1 -1 -1 -1 249 -1 -1 -1 -1 209 209 209 209 209 209 225 225 225 225 225 225 225 225 21 21 21 21 -1 -1 -1 -1 -1 101 101 101 101 101 101 101 
          -1 -1 -1 -1 -1 -1 -1 -1 -1 -1 -1 -1 -1 -1 -1 -1 -1 -1 -1 -1 -1 -1 -1 -1 -1 -1 -1 -1 -1 209 209 209 209 209 209 209 225 225 225 225 225 225 225 21 21 21 21 21 21 -1 -1 -1 -1 101 101 101 101 101 101 101 
          -1 -1 -1 -1 -1 -1 -1 -1 -1 -1 -1 -1 -1 -1 -1 -1 -1 -1 -1 -1 -1 -1 -1 -1 -1 -1 -1 -1 -1 209 209 209 209 209 209 209 225 225 225 225 225 225 225 21 21 21 21 21 21 21 -1 -1 -1 -1 101 101 101 101 101 101 
          -1 -1 -1 -1 -1 -1 -1 -1 -1 -1 -1 -1 -1 -1 -1 -1 -1 -1 41 -1 -1 -1 -1 -1 -1 -1 -1 -1 -1 209 209 209 209 209 209 209 225 225 225 225 225 225 21 21 21 21 21 21 21 21 -1 -1 -1 -1 101 101 101 101 101 101 
          -1 -1 -1 -1 -1 -1 -1 -1 -1 -1 -1 -1 -1 -1 -1 -1 -1 -1 -1 -1 -1 -1 -1 -1 -1 -1 -1 -1 -1 209 209 209 209 209 209 209 225 225 225 225 225 225 21 21 21 21 21 21 21 21 21 -1 -1 -1 -1 101 101 101 101 101 
          -1 -1 -1 -1 -1 -1 -1 -1 -1 -1 -1 -1 -1 -1 -1 -1 -1 -1 -1 -1 -1 -1 -1 -1 -1 -1 -1 -1 -1 -1 209 209 209 209 209 209 209 225 225 225 225 225 21 21 21 21 21 21 21 21 21 -1 -1 -1 -1 101 101 101 101 101 
          -1 -1 -1 74 74 74 -1 -1 -1 -1 -1 -1 -1 -1 -1 -1 -1 -1 -1 -1 -1 -1 -1 -1 -1 -1 -1 -1 -1 -1 209 209 209 209 209 209 209 225 225 225 225 21 21 21 21 21 21 21 21 21 21 -1 -1 -1 -1 -1 -1 101 -1 -1 
          -1 -1 -1 -1 178 178 178 178 178 178 178 178 178 -1 -1 -1 -1 -1 234 234 234 234 234 -1 -1 -1 -1 -1 -1 -1 12 116 116 116 116 116 -1 -1 -1 -1 -1 -1 -1 -1 -1 -1 -1 -1 -1 -1 -1 -1 -1 -1 -1 -1 -1 -1 -1 -1 
          -1 -1 -1 -1 178 178 178 178 178 178 178 178 178 -1 -1 234 234 234 234 234 234 234 234 234 -1 -1 -1 -1 -1 -1 -1 116 116 116 116 116 -1 -1 -1 -1 -1 -1 -1 -1 -1 -1 -1 -1 -1 -1 -1 -1 -1 -1 -1 -1 -1 -1 -1 -1 
          -1 -1 -1 -1 178 178 178 178 178 178 178 178 178 -1 -1 234 234 234 234 234 234 234 234 1 -1 -1 -1 -1 -1 -1 -1 -1 116 116 116 -1 -1 -1 -1 -1 -1 -1 -1 -1 -1 -1 -1 -1 -1 -1 -1 -1 -1 -1 -1 -1 -1 -1 -1 -1 
          -1 -1 -1 -1 -1 -1 -1 -1 -1 -1 -1 -1 -1 -1 -1 234 234 234 234 234 234 234 234 1 1 1 1 -1 -1 -1 -1 -1 116 116 -1 -1 -1 -1 -1 -1 -1 -1 -1 -1 -1 -1 -1 -1 -1 -1 -1 -1 -1 -1 -1 -1 -1 101 101 101 
          -1 -1 -1 -1 -1 -1 -1 -1 -1 -1 -1 -1 -1 -1 -1 234 234 234 234 234 234 234 234 1 1 1 1 1 -1 -1 -1 -1 -1 -1 -1 -1 -1 -1 -1 -1 -1 -1 -1 -1 -1 -1 -1 -1 -1 -1 -1 -1 -1 -1 -1 -1 101 101 101 101 
          -1 -1 -1 -1 -1 -1 -1 -1 -1 -1 -1 -1 -1 -1 -1 234 234 234 234 234 234 234 234 1 1 1 1 1 -1 -1 -1 -1 -1 -1 -1 -1 -1 -1 -1 -1 -1 -1 -1 -1 -1 -1 -1 -1 -1 -1 -1 -1 -1 -1 -1 101 101 101 101 101 
          -1 -1 -1 -1 -1 -1 -1 -1 -1 -1 -1 -1 -1 -1 -1 234 234 234 234 234 234 234 234 1 1 1 1 -1 -1 -1 -1 -1 -1 -1 -1 -1 -1 225 225 225 225 225 225 -1 -1 -1 -1 -1 -1 -1 -1 -1 -1 -1 101 101 101 101 101 101 
          -1 -1 -1 -1 -1 -1 -1 -1 -1 -1 -1 -1 -1 -1 -1 -1 234 234 234 234 234 234 234 249 1 249 249 -1 -1 -1 209 209 209 209 209 209 225 225 225 225 225 225 225 225 -1 21 21 21 -1 -1 -1 -1 -1 101 101 101 101 101 101 101 
          -1 -1 -1 -1 -1 -1 -1 -1 -1 -1 -1 -1 -1 -1 -1 -1 -1 234 234 234 -1 -1 249 249 249 249 249 -1 -1 209 209 209 209 209 209 209 225 225 225 225 225 225 225 225 21 21 21 21 21 -1 -1 -1 -1 101 101 101 101 101 101 101 
          -1 -1 -1 -1 -1 -1 -1 -1 -1 -1 -1 -1 -1 -1 -1 -1 -1 -1 -1 -1 -1 -1 249 249 249 249 249 -1 209 209 209 209 209 209 209 209 225 225 225 225 225 225 225 21 21 21 21 21 21 -1 -1 -1 -1 -1 101 101 101 101 101 101 
          -1 -1 -1 -1 -1 -1 -1 -1 -1 -1 -1 -1 -1 -1 -1 -1 -1 -1 41 41 41 -1 -1 249 249 249 -1 -1 -1 209 209 209 209 209 209 209 209 225 225 225 225 225 225 21 21 21 21 21 21 21 -1 -1 -1 -1 101 101 101 101 101 101 
          -1 -1 -1 -1 -1 -1 -1 -1 -1 -1 -1 -1 -1 -1 -1 -1 -1 41 41 41 41 -1 -1 249 249 -1 -1 -1 -1 209 209 209 209 209 209 209 209 225 225 225 225 225 21 21 21 21 21 21 21 21 -1 -1 -1 -1 -1 101 101 101 101 101 
          -1 -1 -1 -1 -1 -1 -1 -1 -1 -1 -1 -1 -1 -1 -1 -1 -1 41 41 41 41 -1 -1 -1 -1 -1 -1 -1 -1 209 209 209 209 209 209 209 209 225 225 225 225 225 21 21 21 21 21 21 21 21 21 -1 -1 -1 -1 101 101 101 101 101 
          -1 -1 -1 74 -1 -1 -1 -1 -1 -1 -1 -1 -1 -1 -1 -1 -1 -1 41 41 41 41 -1 -1 -1 -1 -1 -1 -1 -1 209 209 209 209 209 209 209 225 225 225 225 21 21 21 21 21 21 21 21 21 21 -1 -1 -1 -1 -1 101 101 101 101 
          -1 -1 74 74 74 74 74 74 -1 -1 -1 -1 -1 -1 -1 -1 -1 -1 41 41 41 41 -1 -1 -1 -1 -1 -1 -1 -1 209 209 209 209 209 209 209 225 225 225 225 21 21 21 21 21 21 21 21 21 21 -1 -1 -1 -1 -1 101 101 101 -1 
          -1 -1 -1 178 178 178 178 178 178 178 178 178 178 -1 -1 -1 61 234 234 234 234 234 234 -1 -1 -1 -1 -1 -1 116 116 116 116 116 116 116 116 -1 -1 -1 -1 -1 -1 -1 -1 68 68 -1 -1 -1 -1 -1 -1 -1 -1 -1 -1 -1 -1 -1 
          -1 -1 -1 -1 178 178 178 178 178 178 178 178 178 -1 -1 234 234 234 234 234 234 234 234 -1 -1 -1 -1 -1 -1 -1 116 116 116 116 116 116 116 -1 -1 -1 -1 -1 -1 -1 -1 -1 -1 -1 -1 -1 -1 -1 -1 -1 -1 -1 -1 -1 -1 -1 
          -1 -1 -1 -1 178 178 178 178 178 178 178 178 178 178 234 234 234 234 234 234 234 234 1 1 1 1 1 -1 -1 -1 116 116 116 116 116 116 -1 -1 -1 -1 -1 -1 -1 -1 -1 -1 -1 -1 -1 -1 -1 -1 -1 -1 -1 -1 -1 -1 -1 -1 
          -1 -1 -1 -1 -1 178 178 178 178 178 178 178 178 -1 -1 234 234 234 234 234 234 234 1 1 1 1 1 1 -1 -1 116 116 116 116 116 116 -1 -1 -1 -1 -1 -1 -1 -1 -1 -1 -1 -1 -1 -1 -1 -1 -1 -1 -1 -1 -1 -1 101 -1 
          -1 -1 -1 -1 -1 -1 -1 -1 -1 -1 -1 -1 -1 -1 -1 234 234 234 234 234 234 234 1 1 1 1 1 1 -1 -1 -1 116 116 116 116 -1 -1 -1 -1 -1 -1 -1 -1 -1 -1 -1 -1 -1 -1 -1 -1 -1 -1 -1 -1 -1 101 101 101 101 
          -1 -1 -1 -1 -1 -1 -1 -1 -1 -1 -1 -1 -1 -1 -1 234 234 234 234 234 234 234 1 1 1 1 1 1 -1 -1 -1 -1 -1 -1 -1 -1 -1 -1 -1 -1 -1 -1 -1 -1 -1 -1 -1 -1 -1 -1 -1 -1 -1 -1 -1 101 101 101 101 101 
          -1 -1 -1 -1 -1 -1 -1 -1 -1 -1 -1 -1 -1 -1 -1 -1 234 234 234 234 234 234 1 1 1 1 1 1 -1 -1 -1 -1 -1 -1 -1 -1 225 225 225 225 225 225 -1 -1 -1 -1 -1 -1 -1 -1 -1 -1 -1 -1 101 101 101 101 101 101 
          -1 -1 -1 -1 -1 -1 -1 -1 -1 -1 -1 -1 -1 -1 -1 -1 -1 234 234 234 1 1 1 1 1 249 249 -1 -1 -1 209 209 209 209 209 209 225 225 225 225 225 225 225 225 -1 21 21 21 -1 -1 -1 -1 -1 37 101 101 101 101 101 101 
          -1 -1 -1 -1 -1 -1 -1 -1 -1 -1 -1 -1 -1 -1 -1 -1 -1 -1 234 1 1 1 249 249 249 249 249 -1 209 209 209 209 209 209 209 209 225 225 225 225 225 225 225 225 21 21 21 21 21 -1 -1 -1 -1 37 101 101 101 101 101 101 
          -1 -1 -1 -1 -1 -1 -1 -1 -1 -1 -1 -1 -1 -1 -1 -1 -1 -1 -1 1 1 1 249 249 249 249 249 249 209 209 209 209 209 209 209 209 225 225 225 225 225 225 225 21 21 21 21 21 21 -1 -1 -1 -1 -1 101 101 101 101 101 101 
          -1 -1 -1 -1 -1 -1 -1 -1 -1 -1 -1 -1 -1 -1 -1 -1 -1 41 41 41 1 1 249 249 249 249 249 -1 -1 209 209 209 209 209 209 209 225 225 225 225 225 225 225 21 21 21 21 21 21 21 -1 -1 -1 -1 -1 101 101 101 101 101 
          -1 -1 -1 -1 -1 -1 -1 -1 -1 -1 -1 -1 -1 -1 -1 -1 -1 41 41 41 41 41 249 249 249 249 -1 -1 -1 209 209 209 209 209 209 209 209 225 225 225 225 225 21 21 21 21 21 21 21 21 -1 -1 -1 -1 -1 101 101 101 101 101 
          -1 -1 -1 -1 -1 -1 -1 -1 -1 -1 -1 -1 -1 -1 -1 -1 41 41 41 41 41 41 249 249 249 -1 -1 -1 -1 5 209 209 209 209 209 209 209 225 225 225 225 225 21 21 21 21 21 21 21 21 21 -1 -1 -1 -1 101 101 101 101 101 
          -1 -1 -1 74 74 74 74 -1 -1 -1 -1 -1 -1 -1 -1 -1 41 41 41 41 41 41 41 -1 -1 -1 -1 -1 -1 5 209 209 209 209 209 209 209 225 225 225 225 21 21 21 21 21 21 21 21 21 21 -1 -1 -1 -1 -1 101 101 101 101 
          -1 -1 74 74 74 74 74 74 74 74 -1 -1 -1 -1 -1 -1 -1 41 41 41 41 41 41 41 -1 -1 -1 -1 -1 -1 209 209 209 209 209 209 209 209 225 225 21 21 21 21 21 21 21 21 21 21 21 -1 -1 -1 -1 -1 -1 -1 -1 -1 
          -1 -1 -1 -1 178 178 178 178 178 178 178 178 178 -1 -1 61 61 61 61 61 61 61 -1 -1 -1 -1 -1 -1 116 116 116 116 116 116 116 116 116 116 -1 -1 -1 68 68 68 68 68 68 68 -1 -1 -1 -1 -1 -1 -1 -1 -1 -1 -1 -1 
          -1 -1 -1 -1 178 178 178 178 178 178 178 178 178 178 -1 61 61 61 61 1 1 1 1 1 1 -1 -1 -1 -1 116 116 116 116 116 116 116 116 116 -1 -1 -1 -1 -1 68 68 68 68 68 -1 -1 -1 -1 -1 -1 -1 -1 -1 -1 -1 -1 
          -1 -1 -1 -1 178 178 178 178 178 178 178 178 178 -1 -1 234 61 61 1 1 1 1 1 1 1 1 1 1 -1 -1 116 116 116 116 116 116 116 -1 -1 -1 -1 -1 -1 -1 68 68 68 68 -1 -1 -1 -1 -1 -1 -1 -1 -1 -1 -1 -1 
          -1 -1 -1 -1 -1 178 178 178 178 178 178 178 178 -1 -1 234 234 61 1 1 1 1 1 1 1 1 1 1 -1 -1 116 116 116 116 116 116 116 -1 -1 -1 -1 -1 -1 -1 -1 -1 -1 -1 -1 -1 -1 -1 -1 -1 -1 -1 -1 -1 -1 -1 
          -1 -1 -1 -1 -1 178 178 178 178 178 178 178 -1 -1 -1 -1 234 234 234 1 1 1 1 1 1 1 1 1 -1 -1 -1 116 116 116 116 116 -1 -1 -1 -1 -1 -1 -1 -1 -1 -1 -1 -1 -1 -1 -1 -1 -1 -1 37 37 37 101 101 101 
          -1 -1 -1 -1 -1 -1 -1 -1 -1 -1 -1 -1 -1 -1 -1 -1 234 234 234 1 1 1 1 1 1 1 1 1 -1 -1 -1 -1 -1 -1 -1 -1 -1 -1 -1 -1 -1 -1 -1 -1 -1 -1 -1 -1 -1 -1 -1 -1 -1 37 37 37 101 101 101 101 
          -1 -1 -1 -1 -1 -1 -1 -1 -1 -1 -1 -1 -1 -1 -1 -1 -1 234 1 1 1 1 1 1 1 1 1 1 -1 -1 -1 -1 -1 -1 -1 -1 225 225 225 225 225 -1 -1 -1 -1 -1 -1 -1 -1 -1 -1 -1 37 37 37 101 101 101 101 101 
          -1 -1 -1 -1 -1 -1 -1 -1 -1 -1 -1 -1 -1 -1 -1 -1 -1 -1 1 1 1 1 1 1 1 249 1 -1 -1 -1 -1 209 209 209 209 209 225 225 225 225 225 225 -1 -1 21 21 21 21 -1 -1 -1 -1 37 37 37 101 101 101 101 101 
          -1 -1 -1 -1 -1 -1 -1 -1 -1 -1 -1 -1 -1 -1 -1 -1 -1 -1 1 1 1 1 1 249 249 249 249 -1 -1 209 209 209 209 209 209 209 225 225 225 225 225 225 225 21 21 21 21 21 21 -1 -1 -1 37 37 37 101 101 101 101 101 
          -1 -1 -1 -1 -1 -1 -1 -1 -1 -1 -1 -1 -1 -1 -1 -1 -1 -1 1 1 1 1 249 249 249 249 249 249 209 209 209 209 209 209 209 209 225 225 225 225 225 225 225 21 21 21 21 21 21 -1 -1 -1 -1 37 37 101 101 101 101 101 
          -1 -1 -1 -1 -1 -1 -1 -1 -1 -1 -1 -1 -1 -1 -1 -1 -1 41 41 41 1 249 249 249 249 249 249 249 209 209 209 209 209 209 209 209 225 225 225 225 225 225 225 21 21 21 21 21 21 21 -1 -1 -1 -1 -1 101 101 101 101 101 
          -1 -1 -1 -1 -1 -1 -1 -1 -1 -1 -1 -1 -1 -1 -1 -1 -1 41 41 41 41 41 249 249 249 249 249 -1 5 209 209 209 209 209 209 209 209 225 225 225 225 225 21 21 21 21 21 21 21 21 -1 -1 -1 -1 -1 101 101 101 101 101 
          -1 -1 -1 74 -1 -1 -1 -1 -1 -1 -1 -1 -1 -1 -1 -1 41 41 41 41 41 41 41 249 249 249 -1 -1 5 5 5 209 209 209 209 209 209 225 225 225 225 21 21 21 21 21 21 21 21 21 21 -1 -1 -1 -1 -1 101 101 101 101 
          -1 -1 74 74 74 74 74 74 -1 -1 -1 -1 -1 -1 -1 -1 41 41 41 41 41 41 41 41 41 -1 -1 -1 -1 5 5 209 209 209 209 209 209 225 225 225 225 21 21 21 21 21 21 21 21 21 21 -1 -1 -1 -1 -1 -1 -1 -1 -1 
          -1 -1 74 74 74 74 74 74 74 74 -1 -1 -1 -1 -1 -1 41 41 41 41 41 41 41 41 41 -1 -1 -1 -1 5 5 209 209 209 209 209 209 209 225 225 21 21 21 21 21 21 21 21 21 21 21 -1 -1 -1 -1 -1 -1 -1 -1 -1 
          -1 -1 -1 -1 178 178 178 178 178 178 178 178 178 -1 61 61 61 61 61 61 61 61 61 61 -1 -1 -1 -1 116 116 116 116 116 116 116 116 116 116 116 68 68 68 68 68 68 68 68 68 -1 -1 -1 -1 -1 -1 -1 -1 -1 -1 -1 -1 
          -1 -1 -1 -1 178 178 178 178 178 178 178 178 178 178 61 61 61 61 61 61 61 61 1 1 1 1 1 -1 -1 116 116 116 116 116 116 116 116 116 116 68 68 68 68 68 68 68 68 68 -1 -1 -1 -1 -1 -1 -1 -1 -1 -1 -1 -1 
          -1 -1 -1 -1 178 178 178 178 178 178 178 178 178 -1 -1 61 61 61 61 1 1 1 1 1 1 1 1 -1 -1 -1 116 116 116 116 116 116 116 116 -1 -1 -1 68 68 68 68 68 68 68 -1 -1 -1 -1 -1 -1 -1 37 37 37 -1 -1 
          -1 -1 -1 -1 -1 178 178 178 178 178 178 178 -1 -1 -1 61 61 61 61 1 1 1 1 1 1 1 1 1 -1 -1 116 116 116 116 116 116 116 -1 -1 -1 -1 -1 -1 -1 -1 -1 -1 -1 -1 -1 -1 -1 -1 -1 37 37 37 37 -1 -1 
          -1 -1 -1 -1 -1 178 178 178 178 178 178 -1 -1 -1 -1 61 61 61 61 1 1 1 1 1 1 1 1 1 -1 -1 -1 116 116 116 116 -1 -1 -1 -1 -1 -1 -1 -1 -1 -1 -1 -1 -1 -1 -1 -1 -1 -1 37 37 37 37 37 -1 -1 
          -1 -1 -1 -1 -1 -1 -1 -1 -1 178 -1 -1 -1 -1 -1 -1 61 61 61 1 1 1 1 1 1 1 1 1 -1 -1 -1 -1 -1 -1 -1 -1 -1 -1 -1 -1 -1 -1 -1 -1 -1 -1 -1 -1 -1 -1 -1 -1 37 37 37 37 37 101 101 -1 
          -1 -1 -1 -1 -1 -1 -1 -1 -1 -1 -1 -1 -1 -1 -1 -1 -1 61 1 1 1 1 1 1 1 1 1 1 -1 -1 -1 -1 -1 -1 -1 -1 225 225 225 -1 -1 -1 -1 -1 -1 -1 -1 -1 -1 -1 -1 37 37 37 37 37 37 101 101 101 
          -1 -1 -1 -1 -1 -1 -1 -1 -1 -1 -1 -1 -1 -1 -1 -1 -1 -1 1 1 1 1 1 1 1 1 1 1 -1 -1 -1 -1 209 209 209 209 225 225 225 225 225 -1 -1 -1 21 21 21 -1 -1 -1 -1 37 37 37 37 37 101 101 101 101 
          -1 -1 -1 -1 -1 -1 -1 -1 -1 -1 -1 -1 -1 -1 -1 -1 -1 -1 1 1 1 1 1 249 249 249 249 -1 -1 -1 209 209 209 209 209 209 225 225 225 225 225 225 225 21 21 21 21 21 -1 -1 -1 -1 37 37 37 37 101 101 101 101 
          -1 -1 -1 -1 -1 -1 -1 -1 -1 -1 -1 -1 -1 -1 -1 -1 -1 -1 1 1 1 249 249 249 249 249 249 249 -1 209 209 209 209 209 209 209 209 225 225 225 225 225 225 21 21 21 21 21 21 -1 -1 -1 37 37 37 37 101 101 101 101 
          -1 -1 -1 -1 -1 -1 -1 -1 -1 -1 -1 -1 -1 -1 -1 -1 -1 41 41 41 1 249 249 249 249 249 249 249 -1 209 209 209 209 209 209 209 209 225 225 225 225 225 225 21 21 21 21 21 21 -1 -1 -1 -1 37 -1 101 101 101 101 101 
          -1 -1 -1 -1 -1 -1 -1 -1 -1 -1 -1 -1 -1 -1 -1 -1 -1 41 41 41 41 41 249 249 249 249 249 249 5 5 5 5 209 209 209 209 209 225 225 225 225 225 21 21 21 21 21 21 21 21 -1 -1 -1 -1 -1 -1 101 101 -1 -1 
          -1 -1 -1 74 74 -1 -1 -1 -1 -1 -1 -1 -1 -1 -1 -1 41 41 41 41 41 41 41 41 249 249 249 -1 5 5 5 5 209 209 209 209 209 225 225 225 225 21 21 21 21 21 21 21 21 21 -1 -1 -1 -1 -1 -1 -1 -1 -1 -1 
          -1 -1 74 74 74 74 74 -1 -1 -1 -1 -1 -1 -1 -1 -1 41 41 41 41 41 41 41 41 41 41 -1 -1 5 5 5 5 209 209 209 209 209 225 225 225 21 21 21 21 21 21 21 21 21 21 21 -1 -1 -1 -1 -1 -1 -1 -1 -1 
          -1 74 74 74 74 74 74 74 74 -1 -1 -1 -1 -1 -1 41 41 41 41 41 41 41 41 41 41 41 -1 -1 5 5 5 5 5 5 5 5 209 225 -1 -1 21 21 21 21 21 21 21 21 21 21 21 -1 -1 -1 -1 -1 -1 -1 -1 -1 
          -1 -1 -1 -1 178 178 178 178 178 178 178 178 178 61 61 61 61 61 61 61 61 61 61 61 1 -1 -1 -1 116 116 116 116 116 116 116 116 116 116 116 68 68 68 68 68 68 68 68 68 -1 -1 -1 -1 -1 -1 -1 -1 -1 37 -1 -1 
          -1 -1 -1 -1 178 178 178 178 178 178 178 178 178 178 61 61 61 61 61 61 61 61 1 1 1 1 1 -1 -1 116 116 116 116 116 116 116 116 116 116 68 68 68 68 68 68 68 68 68 -1 -1 -1 -1 -1 -1 -1 37 37 37 -1 -1 
          -1 -1 -1 -1 178 178 178 178 178 178 178 178 178 -1 61 61 61 61 61 61 1 1 1 1 1 1 1 -1 -1 -1 116 116 116 116 116 116 116 116 116 68 68 68 68 68 68 68 68 68 -1 -1 -1 -1 -1 -1 37 37 37 37 37 -1 
          -1 -1 -1 -1 -1 178 178 178 178 178 178 178 -1 -1 61 61 61 61 61 61 1 1 1 1 1 1 1 1 -1 -1 -1 116 116 116 116 116 116 -1 -1 -1 68 68 -1 -1 -1 -1 -1 -1 -1 -1 -1 -1 37 37 37 37 37 37 37 -1 
          -1 -1 -1 -1 -1 178 178 178 178 178 178 -1 -1 -1 -1 61 61 61 61 1 1 1 1 1 1 1 1 1 -1 -1 -1 -1 116 116 -1 -1 -1 -1 -1 -1 -1 -1 -1 -1 -1 -1 -1 -1 -1 -1 -1 37 37 37 37 37 37 37 37 37 
          -1 -1 -1 -1 -1 -1 178 178 178 178 -1 -1 -1 -1 -1 61 61 61 1 1 1 1 1 1 1 1 1 1 -1 -1 -1 -1 -1 -1 -1 -1 -1 -1 -1 -1 -1 -1 -1 -1 -1 -1 -1 -1 -1 -1 -1 37 37 37 37 37 37 37 37 37 
          -1 -1 -1 -1 -1 -1 -1 -1 -1 -1 -1 -1 -1 -1 -1 -1 -1 1 1 1 1 1 1 1 1 1 1 1 -1 -1 -1 -1 -1 -1 -1 -1 -1 -1 -1 -1 -1 -1 -1 -1 -1 -1 -1 -1 -1 -1 -1 37 37 37 37 37 37 37 37 37 
          -1 -1 -1 -1 -1 -1 -1 -1 -1 -1 -1 -1 -1 -1 -1 -1 -1 -1 1 1 1 1 1 1 1 1 1 1 -1 -1 -1 -1 -1 -1 209 209 -1 225 225 -1 -1 -1 -1 -1 -1 -1 -1 -1 -1 -1 -1 37 37 37 37 37 37 37 37 37 
          -1 -1 -1 -1 -1 -1 -1 -1 -1 -1 -1 -1 -1 -1 -1 -1 -1 -1 1 1 1 1 1 249 249 249 249 249 -1 -1 -1 209 209 209 209 209 209 225 225 225 225 -1 -1 -1 -1 -1 109 109 -1 -1 -1 -1 37 37 37 37 37 37 37 37 
          -1 -1 -1 -1 -1 -1 -1 -1 -1 -1 -1 -1 -1 -1 -1 -1 -1 -1 1 1 1 249 249 249 249 249 249 249 -1 -1 5 209 209 209 209 209 209 225 225 225 225 225 21 21 21 21 21 21 21 -1 -1 -1 37 37 37 37 37 37 37 37 
          -1 -1 -1 -1 -1 -1 -1 -1 -1 -1 -1 -1 -1 -1 -1 -1 -1 41 41 41 41 249 249 249 249 249 249 249 5 5 5 5 5 209 209 209 209 -1 225 225 225 225 21 21 21 21 21 21 21 -1 -1 -1 -1 37 37 37 37 -1 -1 -1 
          -1 -1 -1 -1 -1 -1 -1 -1 -1 -1 -1 -1 -1 -1 -1 -1 -1 41 41 41 41 41 249 249 249 249 249 249 5 5 5 5 5 5 209 209 209 209 225 225 225 225 21 21 21 21 21 21 21 21 -1 -1 -1 -1 -1 -1 -1 -1 -1 -1 
          -1 -1 -1 74 -1 -1 -1 -1 -1 -1 -1 -1 -1 -1 -1 -1 41 41 41 41 41 41 41 41 41 41 249 -1 5 5 5 5 5 5 5 5 5 -1 225 225 21 21 21 21 21 21 21 21 21 21 -1 -1 -1 -1 -1 -1 -1 -1 -1 -1 
          -1 -1 74 74 74 74 -1 -1 -1 -1 -1 -1 -1 -1 -1 41 41 41 41 41 41 41 41 41 41 41 41 -1 5 5 5 5 5 5 5 5 5 5 -1 225 21 21 21 21 21 21 21 21 21 21 21 -1 -1 -1 -1 -1 -1 -1 -1 -1 
          -1 -1 74 74 74 74 74 74 -1 -1 -1 -1 -1 -1 -1 41 41 41 41 41 41 41 41 41 41 41 -1 -1 5 5 5 5 5 5 5 5 5 5 -1 -1 21 21 21 21 21 21 21 21 21 21 21 -1 -1 -1 -1 -1 -1 -1 -1 -1 
          -1 -1 -1 -1 178 178 178 178 178 178 178 178 178 61 61 61 61 61 61 61 61 61 61 61 1 1 1 -1 116 116 116 116 116 116 116 116 116 116 116 68 68 68 68 68 68 68 68 68 -1 -1 -1 -1 -1 -1 -1 -1 37 37 37 -1 
          -1 -1 -1 -1 178 178 178 178 178 178 178 178 178 61 61 61 61 61 61 61 61 61 1 1 1 1 1 -1 -1 116 116 116 116 116 116 116 116 116 116 68 68 68 68 68 68 68 68 68 -1 -1 -1 -1 -1 -1 37 37 37 37 37 -1 
          -1 -1 -1 -1 178 178 178 178 178 178 178 178 178 61 61 61 61 61 61 61 61 1 1 1 1 1 1 -1 -1 -1 116 116 116 116 116 116 116 116 68 68 68 68 68 68 68 68 68 68 -1 -1 -1 -1 37 37 37 37 37 37 37 37 
          -1 -1 -1 -1 -1 178 178 178 178 178 178 178 -1 -1 61 61 61 61 61 61 1 1 1 1 1 1 1 -1 -1 -1 -1 116 116 116 116 116 -1 -1 68 68 68 -1 -1 -1 -1 -1 -1 -1 -1 -1 -1 37 37 37 37 37 37 37 37 37 
          -1 -1 -1 -1 -1 178 178 178 178 178 178 -1 -1 -1 61 61 61 61 61 1 1 1 1 1 1 1 1 1 -1 -1 -1 -1 116 -1 -1 -1 -1 -1 -1 -1 -1 -1 -1 -1 -1 -1 -1 -1 -1 -1 37 37 37 37 37 37 37 37 37 37 
          -1 -1 -1 -1 -1 -1 178 178 178 178 -1 -1 -1 -1 61 61 61 61 1 1 1 1 1 1 1 1 1 1 -1 -1 -1 -1 -1 -1 -1 -1 -1 -1 -1 -1 -1 -1 -1 -1 -1 -1 109 109 -1 -1 37 37 37 37 37 37 37 37 37 37 
          -1 -1 -1 -1 -1 -1 -1 -1 -1 -1 -1 -1 -1 -1 -1 -1 -1 1 1 1 1 1 1 1 1 1 1 1 -1 -1 -1 -1 -1 -1 -1 -1 -1 -1 -1 -1 -1 -1 -1 -1 109 109 109 109 -1 -1 37 37 37 37 37 37 37 37 37 37 
          -1 -1 -1 -1 -1 -1 -1 -1 -1 -1 -1 -1 -1 -1 -1 -1 -1 -1 1 1 1 1 1 1 1 1 1 1 -1 -1 -1 -1 -1 -1 5 -1 -1 -1 -1 -1 -1 -1 -1 -1 109 109 109 109 109 -1 -1 37 37 37 37 37 37 37 37 37 
          -1 -1 -1 -1 -1 -1 -1 -1 -1 -1 -1 -1 -1 -1 -1 -1 -1 -1 1 1 1 1 1 1 249 249 249 1 -1 -1 -1 -1 5 5 209 209 -1 -1 -1 -1 -1 -1 -1 -1 109 109 109 109 109 -1 -1 37 37 37 37 37 37 37 37 37 
          -1 -1 -1 -1 -1 -1 -1 -1 -1 -1 -1 -1 -1 -1 -1 -1 -1 -1 1 1 1 249 249 249 249 249 249 249 -1 -1 5 5 5 5 5 209 209 -1 -1 -1 -1 -1 -1 -1 -1 -1 109 109 -1 -1 -1 -1 37 37 37 37 37 37 37 37 
          -1 -1 -1 -1 -1 -1 -1 -1 -1 -1 -1 -1 -1 -1 -1 -1 -1 41 41 41 41 249 249 249 249 249 249 249 5 5 5 5 5 5 5 5 5 -1 -1 -1 -1 21 21 21 21 21 21 21 21 -1 -1 -1 37 37 37 37 37 37 37 -1 
          -1 -1 -1 -1 -1 -1 -1 -1 -1 -1 -1 -1 -1 -1 -1 -1 41 41 41 41 41 41 249 249 249 249 249 249 5 5 5 5 5 5 5 5 5 5 -1 -1 21 21 21 21 21 21 21 21 21 21 -1 -1 -1 37 -1 -1 -1 -1 -1 -1 
          -1 -1 -1 -1 -1 -1 -1 -1 -1 -1 -1 -1 -1 -1 -1 -1 41 41 41 41 41 41 41 41 41 41 249 249 5 5 5 5 5 5 5 5 5 5 -1 -1 21 21 21 21 21 21 21 21 21 21 -1 -1 -1 -1 -1 -1 -1 -1 -1 -1 
          -1 -1 -1 74 74 -1 -1 -1 -1 -1 -1 -1 -1 -1 -1 41 41 41 41 41 41 41 41 41 41 41 -1 -1 5 5 5 5 5 5 5 5 5 5 -1 -1 21 21 21 21 21 21 21 21 21 21 -1 -1 -1 -1 -1 -1 -1 -1 -1 -1 
          -1 -1 -1 74 74 74 74 -1 -1 -1 -1 -1 -1 -1 -1 41 41 41 41 41 41 41 41 41 41 41 -1 -1 5 5 5 5 5 5 5 5 5 5 5 -1 21 21 21 21 21 21 21 21 21 21 21 -1 -1 -1 -1 -1 -1 -1 -1 -1 
          -1 -1 -1 -1 178 178 178 178 178 178 178 178 178 61 61 61 61 61 61 61 61 61 61 1 1 1 1 -1 -1 116 116 116 116 116 116 116 116 116 116 68 68 68 68 68 68 68 68 68 -1 -1 -1 -1 -1 -1 -1 -1 37 37 -1 -1 
          -1 -1 -1 -1 178 178 178 178 178 178 178 178 178 61 61 61 61 61 61 61 61 61 1 1 1 1 1 -1 -1 116 116 116 116 116 116 116 116 116 68 68 68 68 68 68 68 68 68 68 -1 -1 -1 -1 -1 37 37 37 37 37 37 -1 
          -1 -1 -1 -1 -1 178 178 178 178 178 178 178 178 61 61 61 61 61 61 61 61 1 1 1 1 1 1 -1 -1 -1 116 116 116 116 116 116 116 116 68 68 68 68 68 68 68 68 68 68 -1 -1 -1 37 37 37 37 37 37 37 37 37 
          -1 -1 -1 -1 -1 178 178 178 178 178 178 178 -1 61 61 61 61 61 61 61 1 1 1 1 1 1 1 -1 -1 -1 -1 116 116 116 116 -1 -1 -1 -1 68 68 -1 -1 -1 -1 109 109 109 -1 -1 37 37 37 37 37 37 37 37 37 37 
          -1 -1 -1 -1 -1 -1 178 178 178 178 178 -1 -1 61 61 61 61 61 61 1 1 1 1 1 1 1 1 1 -1 -1 -1 -1 -1 -1 -1 -1 -1 -1 -1 -1 -1 -1 -1 -1 109 109 109 109 -1 -1 37 37 37 37 37 37 37 37 37 37 
          -1 -1 -1 -1 -1 -1 178 178 178 -1 -1 -1 -1 -1 61 61 61 61 1 1 1 1 1 1 1 1 1 1 -1 -1 -1 -1 -1 -1 -1 -1 -1 -1 -1 -1 -1 -1 -1 109 109 109 109 109 109 -1 37 37 37 37 37 37 37 37 37 37 
          -1 -1 -1 -1 -1 -1 -1 178 -1 -1 -1 -1 -1 -1 -1 -1 -1 1 1 1 1 1 1 1 1 1 1 1 -1 -1 -1 -1 -1 -1 -1 -1 -1 -1 -1 -1 -1 -1 109 109 109 109 109 109 109 -1 37 37 37 37 37 37 37 37 37 37 
          -1 -1 -1 -1 -1 -1 -1 -1 -1 -1 -1 -1 -1 -1 -1 -1 -1 1 1 1 1 1 1 1 1 1 1 1 -1 -1 -1 -1 -1 5 5 5 -1 -1 -1 -1 -1 -1 109 109 109 109 109 109 109 -1 37 37 37 37 37 37 37 37 37 37 
          -1 -1 -1 -1 -1 -1 -1 -1 -1 -1 -1 -1 -1 -1 -1 -1 -1 -1 1 1 1 1 1 1 1 1 1 1 -1 -1 -1 5 5 5 5 5 5 -1 -1 -1 -1 -1 -1 109 109 109 109 109 109 -1 -1 37 37 37 37 37 37 37 37 37 
          -1 -1 -1 -1 -1 -1 -1 -1 -1 -1 -1 -1 -1 -1 -1 -1 214 -1 1 1 1 249 249 249 249 249 249 249 -1 5 5 5 5 5 5 5 5 -1 -1 -1 -1 -1 -1 -1 109 109 109 109 -1 -1 -1 37 37 37 37 37 37 37 37 37 
          -1 -1 -1 -1 -1 -1 -1 -1 -1 -1 -1 -1 -1 -1 -1 -1 -1 41 41 41 41 249 249 249 249 249 249 249 5 5 5 5 5 5 5 5 5 5 -1 -1 -1 -1 -1 -1 -1 -1 109 -1 -1 -1 -1 -1 37 37 37 37 37 37 37 37 
          -1 -1 -1 -1 -1 -1 -1 -1 -1 -1 -1 -1 -1 -1 -1 -1 41 41 41 41 41 41 41 41 249 249 249 249 5 5 5 5 5 5 5 5 5 5 -1 -1 -1 -1 -1 -1 -1 -1 -1 -1 -1 -1 -1 -1 -1 37 37 37 -1 -1 -1 -1 
          -1 -1 -1 -1 -1 -1 -1 -1 -1 -1 -1 -1 -1 -1 -1 -1 41 41 41 41 41 41 41 41 41 41 249 5 5 5 5 5 5 5 5 5 5 5 -1 -1 -1 21 21 21 21 21 21 21 21 21 -1 -1 -1 -1 -1 -1 -1 -1 -1 -1 
          -1 -1 -1 -1 -1 -1 -1 -1 -1 -1 -1 -1 -1 -1 -1 41 41 41 41 41 41 41 41 41 41 41 -1 5 5 5 5 5 5 5 5 5 5 5 -1 -1 -1 21 21 21 21 21 21 21 21 21 -1 -1 -1 -1 -1 -1 -1 -1 -1 -1 
          -1 -1 -1 -1 74 -1 -1 -1 -1 -1 -1 -1 -1 -1 -1 41 41 41 41 41 41 41 41 41 41 41 -1 5 5 5 5 5 5 5 5 5 5 5 -1 -1 -1 270 21 21 21 21 21 21 21 21 21 -1 -1 -1 -1 -1 -1 -1 -1 -1 
          -1 -1 -1 -1 178 178 178 178 178 178 178 178 178 61 61 61 61 61 61 61 61 61 61 1 1 1 -1 -1 -1 116 116 116 116 116 116 116 116 116 68 68 68 68 68 68 68 68 68 68 -1 -1 -1 -1 -1 -1 -1 -1 -1 -1 -1 -1 
          -1 -1 -1 -1 178 178 178 178 178 178 178 178 178 61 61 61 61 61 61 61 61 61 1 1 1 1 1 -1 -1 116 116 116 116 116 116 116 116 116 68 68 68 68 68 68 68 68 68 68 -1 -1 -1 -1 -1 37 37 37 37 37 37 -1 
          -1 -1 -1 -1 -1 178 178 178 178 178 178 178 -1 61 61 61 61 61 61 61 61 61 1 1 1 1 1 -1 -1 -1 116 116 116 116 116 116 116 -1 -1 68 68 68 68 68 68 68 109 109 -1 -1 37 37 37 37 37 37 37 37 37 -1 
          -1 -1 -1 -1 -1 178 178 178 178 178 178 -1 -1 61 61 61 61 61 61 61 61 1 1 1 1 1 1 -1 -1 -1 -1 116 116 116 -1 -1 -1 -1 -1 -1 68 -1 109 109 109 109 109 109 -1 -1 37 37 37 37 37 37 37 37 37 37 
          -1 -1 -1 -1 -1 -1 178 178 178 178 -1 -1 -1 61 61 61 61 61 61 1 1 1 1 1 1 1 1 -1 -1 -1 -1 -1 -1 -1 -1 -1 -1 -1 -1 -1 -1 109 109 109 109 109 109 109 109 37 37 37 37 37 37 37 37 37 37 37 
          -1 -1 -1 -1 -1 -1 -1 -1 -1 -1 -1 -1 -1 -1 61 61 61 61 1 1 1 1 1 1 1 1 1 1 -1 -1 -1 -1 -1 -1 -1 -1 -1 -1 -1 -1 109 109 109 109 109 109 109 109 109 37 37 37 37 37 37 37 37 37 37 37 
          -1 -1 -1 -1 -1 -1 -1 -1 -1 -1 -1 -1 -1 -1 -1 -1 -1 1 1 1 1 1 1 1 1 1 1 1 -1 -1 -1 -1 -1 -1 -1 -1 -1 -1 -1 -1 109 109 109 109 109 109 109 109 109 109 37 37 37 37 37 37 37 37 37 37 
          -1 -1 -1 -1 -1 -1 -1 -1 -1 -1 -1 -1 -1 -1 -1 -1 -1 1 1 1 1 1 1 1 1 1 1 1 -1 -1 -1 -1 -1 5 5 5 -1 -1 -1 -1 109 109 109 109 109 109 109 109 109 109 37 37 37 37 37 37 37 37 37 37 
          -1 -1 -1 -1 -1 -1 -1 -1 -1 -1 -1 -1 -1 -1 214 214 214 214 1 1 1 1 1 1 1 1 1 1 -1 -1 5 5 5 5 5 5 5 -1 -1 -1 -1 109 109 109 109 109 109 109 109 109 -1 37 37 37 37 37 37 37 37 37 
          -1 -1 -1 -1 -1 -1 -1 -1 -1 -1 -1 -1 -1 -1 214 214 214 214 41 41 249 249 249 249 1 1 1 1 5 5 5 5 5 5 5 5 5 -1 -1 -1 -1 -1 -1 109 109 109 109 109 109 -1 -1 37 37 37 37 37 37 37 37 37 
          -1 -1 -1 -1 -1 -1 -1 -1 -1 -1 -1 -1 -1 -1 214 214 214 214 41 41 41 249 249 249 249 249 249 5 5 5 5 5 5 5 5 5 5 -1 -1 -1 -1 -1 -1 -1 -1 109 109 109 -1 -1 -1 -1 37 37 37 37 37 37 37 37 
          -1 -1 -1 -1 -1 -1 -1 -1 -1 -1 -1 -1 -1 -1 -1 214 214 41 41 41 41 41 41 249 249 249 249 5 5 5 5 5 5 5 5 5 5 57 -1 -1 -1 -1 -1 -1 -1 -1 -1 -1 -1 -1 -1 -1 37 37 37 37 37 37 -1 -1 
          -1 -1 -1 -1 -1 -1 -1 -1 -1 -1 -1 -1 -1 -1 -1 214 41 41 41 41 41 41 41 41 41 41 -1 5 5 5 5 5 5 5 5 5 57 57 -1 -1 -1 -1 -1 -1 -1 -1 -1 -1 -1 -1 -1 -1 -1 -1 -1 -1 -1 -1 -1 -1 
          -1 -1 -1 -1 -1 -1 -1 -1 -1 -1 -1 -1 -1 -1 -1 41 41 41 41 41 41 41 41 41 41 41 -1 5 5 5 5 5 5 5 5 5 57 57 57 -1 -1 -1 -1 -1 -1 -1 -1 -1 -1 -1 -1 -1 -1 -1 -1 -1 -1 -1 -1 -1 
          -1 -1 -1 -1 -1 -1 -1 -1 -1 -1 -1 -1 -1 -1 -1 41 41 41 41 41 41 41 41 41 41 41 -1 5 5 5 5 5 5 5 5 57 57 57 57 -1 -1 270 270 -1 -1 -1 -1 -1 -1 21 -1 -1 -1 -1 -1 -1 -1 -1 -1 -1 
          -1 -1 -1 -1 178 178 178 178 178 178 178 178 178 -1 61 61 61 61 61 61 61 61 61 1 1 1 -1 -1 -1 -1 116 116 116 116 116 116 -1 -1 -1 68 68 68 68 68 68 68 68 68 -1 -1 -1 -1 -1 -1 -1 -1 -1 -1 -1 -1 
          -1 -1 -1 -1 -1 178 178 178 178 178 178 178 178 61 61 61 61 61 61 61 61 61 1 1 1 1 1 -1 -1 -1 116 116 116 116 116 116 116 -1 -1 68 68 68 68 68 68 68 68 109 -1 -1 -1 -1 -1 -1 -1 37 37 37 -1 -1 
          -1 -1 -1 -1 -1 -1 -1 178 178 178 178 178 -1 61 61 61 61 61 61 61 61 61 1 1 1 1 1 -1 -1 -1 116 116 116 116 116 116 -1 -1 -1 -1 68 68 68 109 109 109 109 109 109 -1 -1 37 37 37 37 37 37 37 37 -1 
          -1 -1 -1 -1 -1 -1 -1 -1 -1 -1 -1 -1 61 61 61 61 61 61 61 61 61 1 1 1 1 1 1 -1 -1 -1 -1 116 116 -1 -1 -1 -1 -1 -1 -1 -1 109 109 109 109 109 109 109 109 37 37 37 37 37 37 37 37 37 37 37 
          -1 -1 -1 -1 -1 -1 -1 -1 -1 -1 -1 -1 61 61 61 61 61 61 61 61 1 1 1 1 1 1 1 -1 -1 -1 -1 -1 -1 -1 -1 -1 -1 -1 -1 -1 109 109 109 109 109 109 109 109 109 37 37 37 37 37 37 37 37 37 37 37 
          -1 -1 -1 -1 -1 -1 -1 -1 -1 -1 -1 -1 -1 -1 -1 61 61 1 1 1 1 1 1 1 1 1 1 -1 -1 -1 -1 -1 -1 -1 -1 -1 -1 -1 -1 109 109 109 109 109 109 109 109 109 109 109 37 37 37 37 37 37 37 37 37 37 
          -1 -1 -1 -1 -1 -1 -1 -1 -1 -1 -1 -1 -1 -1 -1 -1 -1 1 1 1 1 1 1 1 1 1 1 1 -1 -1 -1 -1 -1 -1 -1 -1 -1 -1 -1 109 109 109 109 109 109 109 109 109 109 109 37 37 37 37 37 37 37 37 37 37 
          -1 -1 -1 -1 -1 -1 -1 -1 -1 -1 -1 -1 214 214 214 214 214 1 1 1 1 1 1 1 1 1 1 1 -1 -1 -1 -1 5 5 5 5 -1 -1 -1 -1 109 109 109 109 109 109 109 109 109 109 37 37 37 37 37 37 37 37 37 37 
          -1 -1 -1 -1 -1 -1 -1 -1 -1 -1 -1 -1 214 214 214 214 214 214 214 1 1 1 1 1 1 1 1 1 -1 -1 5 5 5 5 5 5 5 -1 -1 -1 109 109 109 109 109 109 109 109 109 109 37 37 37 37 37 37 37 37 37 37 
          -1 -1 -1 -1 -1 -1 -1 -1 -1 -1 -1 -1 -1 214 214 214 214 214 214 214 41 249 249 1 1 1 1 1 5 5 5 5 5 5 5 5 57 57 -1 -1 -1 -1 109 109 109 109 109 109 109 -1 -1 37 37 37 37 37 37 37 37 37 
          -1 -1 -1 -1 -1 -1 -1 -1 -1 -1 -1 -1 -1 214 214 214 214 214 214 41 41 249 249 249 249 1 1 5 5 5 5 5 5 5 5 57 57 57 -1 -1 -1 -1 -1 109 109 109 109 109 -1 -1 -1 37 37 37 37 37 37 37 37 37 
          -1 -1 -1 -1 -1 -1 -1 -1 -1 -1 -1 -1 -1 214 214 214 214 214 41 41 41 41 41 249 249 -1 -1 5 5 5 5 5 5 5 57 57 57 57 57 -1 -1 -1 -1 -1 -1 -1 -1 -1 -1 -1 -1 -1 37 37 37 37 37 37 -1 -1 
          -1 -1 -1 -1 -1 -1 -1 -1 -1 -1 -1 -1 -1 214 214 214 214 214 41 41 41 41 41 41 -1 -1 -1 5 5 5 5 5 5 5 57 57 57 57 57 -1 -1 -1 -1 -1 -1 -1 -1 -1 -1 -1 -1 -1 -1 37 37 -1 -1 -1 -1 -1 
          -1 -1 -1 -1 -1 -1 -1 -1 -1 -1 -1 -1 -1 -1 214 214 214 41 41 41 41 41 41 41 41 -1 -1 5 5 5 5 5 5 5 57 57 57 57 57 -1 -1 -1 -1 -1 -1 -1 -1 -1 -1 -1 -1 -1 -1 -1 -1 -1 -1 -1 -1 -1 