<?xml version="1.0"?>
<VTKFile type="RectilinearGrid" version="0.1" byte_order="LittleEndian">
  <RectilinearGrid WholeExtent="0 60 30 45 0 60">
    <Piece Extent="0 60 30 45 0 60">
      <CellData Scalars="grain_id">
        <DataArray type="Int64" Name="grain_id" format="ascii">
          74 74 74 74 74 74 74 74 74 74 74 74 74 74 74 41 41 41 41 41 41 41 41 41 41 142 142 142 142 209 209 209 209 209 209 209 209 209 225 225 225 21 21 21 21 21 21 21 21 21 21 21 58 58 58 101 101 101 101 101 
          74 74 74 74 74 74 74 74 74 74 74 74 74 74 74 41 41 41 41 41 41 41 41 41 41 142 142 142 142 142 209 142 142 209 209 209 209 209 225 225 21 21 21 21 21 21 21 21 21 21 21 58 58 58 58 58 58 101 101 101 
          74 74 74 74 74 74 74 74 74 74 74 74 74 74 74 41 41 41 41 41 41 41 41 41 41 142 142 142 142 142 142 142 142 142 142 209 209 225 225 225 21 21 21 21 21 21 21 21 21 21 58 58 58 58 58 58 58 58 101 101 
          74 74 74 74 74 74 74 74 74 74 74 74 74 74 74 41 41 41 41 41 41 41 41 41 142 142 142 142 142 142 142 142 142 142 142 142 142 225 225 21 21 21 21 21 21 21 21 21 21 21 58 58 58 58 58 58 58 58 58 58 
          74 74 74 74 74 74 74 74 74 74 74 74 74 74 74 41 41 41 41 41 41 41 41 41 142 142 142 142 142 142 142 142 142 142 142 142 142 86 86 21 21 21 21 21 21 21 21 21 21 58 58 58 58 58 58 58 58 58 58 58 
          74 74 74 74 74 74 74 74 74 74 74 74 74 74 30 30 41 41 41 41 41 41 41 41 142 142 142 142 142 142 142 142 142 142 142 142 86 86 86 86 21 21 21 21 21 21 21 21 58 58 58 58 58 58 58 58 58 58 58 58 
          74 74 74 74 74 74 74 74 74 74 74 74 30 30 30 30 30 41 41 41 41 41 41 41 41 142 142 86 86 142 142 142 142 142 142 142 170 170 86 86 21 21 21 21 21 21 21 58 58 58 58 58 58 58 58 58 58 58 58 58 
          74 74 74 74 74 74 74 74 74 74 30 30 30 30 30 30 30 30 30 41 41 41 41 41 41 142 86 86 86 86 142 142 142 142 170 170 170 170 170 170 170 21 21 21 21 21 21 58 58 58 58 58 58 58 58 58 58 58 58 58 
          74 74 74 74 74 74 74 74 74 30 30 30 30 30 30 30 30 30 30 30 41 41 41 41 41 86 86 86 86 86 86 142 86 170 170 170 170 170 170 170 170 170 21 21 21 21 58 58 58 58 58 58 58 58 58 58 58 58 58 58 
          154 154 154 74 74 74 74 74 74 30 30 30 30 30 30 30 30 30 30 30 30 30 41 41 41 86 86 86 86 86 86 86 170 170 170 170 170 170 170 170 170 170 170 236 236 58 58 58 58 58 58 58 58 58 58 58 58 58 58 58 
          154 154 154 154 154 154 74 74 30 30 30 30 30 30 30 30 30 30 30 30 30 30 30 30 86 86 86 86 223 223 223 170 170 170 170 170 170 170 170 170 170 170 170 218 218 236 58 58 58 58 58 58 58 58 58 58 58 58 58 58 
          154 154 154 154 154 154 154 30 30 30 30 30 30 30 30 30 30 30 30 30 30 30 30 30 30 86 223 223 223 223 223 223 223 223 170 170 170 170 170 170 218 218 218 218 218 218 236 58 58 58 58 58 58 58 58 58 58 58 58 58 
          154 154 154 154 154 154 154 154 30 30 30 30 30 30 30 30 30 30 30 30 30 30 30 30 30 223 223 223 223 223 223 223 223 223 223 170 170 170 218 218 218 218 218 218 218 218 236 236 58 58 58 58 58 58 58 58 58 58 58 58 
          154 154 154 154 154 154 154 154 154 154 154 30 30 30 30 91 91 91 30 30 30 30 30 30 167 223 223 223 223 223 223 223 223 223 223 223 223 218 218 218 218 218 218 218 218 236 236 236 58 58 58 58 58 58 58 58 58 58 58 58 
          154 154 154 154 154 154 154 154 154 154 154 154 30 91 91 91 91 91 91 91 91 30 167 167 167 167 223 223 223 223 223 223 223 223 223 223 223 218 218 218 218 218 218 218 218 218 236 236 58 58 58 58 58 58 58 58 58 58 58 58 
          74 74 74 74 74 74 74 74 74 74 74 74 74 74 74 41 41 41 41 41 41 41 41 41 41 142 142 142 142 142 209 209 209 209 209 209 209 209 225 225 21 21 21 21 21 21 21 21 21 21 21 21 58 58 58 101 101 101 101 101 
          74 74 74 74 74 74 74 74 74 74 74 74 74 74 74 41 41 41 41 41 41 41 41 41 41 142 142 142 142 142 142 142 142 142 209 209 209 225 225 225 21 21 21 21 21 21 21 21 21 21 58 58 58 58 58 58 101 101 101 101 
          74 74 74 74 74 74 74 74 74 74 74 74 74 74 74 41 41 41 41 41 41 41 41 41 41 142 142 142 142 142 142 142 142 142 142 142 225 225 270 270 21 21 21 21 21 21 21 21 21 21 58 58 58 58 58 58 58 58 58 101 
          74 74 74 74 74 74 74 74 74 74 74 74 74 74 74 41 41 41 41 41 41 41 41 41 142 142 142 142 142 142 142 142 142 142 142 142 86 270 270 270 21 21 21 21 21 21 21 21 21 58 58 58 58 58 58 58 58 58 58 58 
          74 74 74 74 74 74 74 74 74 74 74 74 74 74 74 41 41 41 41 41 41 41 41 41 142 142 142 142 142 142 142 142 142 142 142 142 86 86 270 270 21 21 21 21 21 21 21 21 58 58 58 58 58 58 58 58 58 58 58 58 
          74 74 74 74 74 74 74 74 74 74 74 74 74 30 30 30 41 41 41 41 41 41 41 41 142 142 142 142 142 142 142 142 142 142 142 142 86 86 86 270 270 21 21 21 21 21 21 58 58 58 58 58 58 58 58 58 58 58 58 58 
          74 74 74 74 74 74 74 74 74 74 74 74 30 30 30 30 30 30 41 41 41 41 41 41 142 142 142 142 86 142 142 142 142 142 142 86 86 86 86 86 270 21 21 21 21 21 21 58 58 58 58 58 58 58 58 58 58 58 58 58 
          74 74 74 74 74 74 74 74 74 74 30 30 30 30 30 30 30 30 30 41 41 41 41 41 142 142 142 86 86 86 86 142 142 170 170 170 170 170 170 170 170 21 21 21 21 21 58 58 58 58 58 58 58 58 58 58 58 58 58 58 
          74 74 74 74 74 74 74 74 74 74 30 30 30 30 30 30 30 30 30 30 30 41 41 41 41 142 86 86 86 86 86 86 86 170 170 170 170 170 170 170 170 170 21 21 21 58 58 58 58 58 58 58 58 58 58 58 58 58 58 58 
          154 154 74 74 74 74 74 74 74 30 30 30 30 30 30 30 30 30 30 30 30 30 30 41 41 86 86 86 86 86 86 86 170 170 170 170 170 170 170 170 170 170 170 236 236 236 58 58 58 58 58 58 58 58 58 58 58 58 58 58 
          154 154 154 154 154 74 74 74 30 30 30 30 30 30 30 30 30 30 30 30 30 30 30 30 86 86 86 86 86 86 86 170 170 170 170 170 170 170 170 170 170 170 170 218 236 236 236 58 58 58 58 58 58 58 58 58 58 58 58 58 
          154 154 154 154 154 154 154 30 30 30 30 30 30 30 30 30 30 30 30 30 30 30 30 30 30 223 223 223 223 223 223 223 223 170 170 170 170 170 170 170 170 170 218 218 236 236 236 236 58 58 58 58 58 58 58 58 58 58 58 58 
          154 154 154 154 154 154 154 154 30 30 30 30 30 30 30 30 30 30 30 30 30 30 30 30 30 223 223 223 223 223 223 223 223 223 170 170 170 170 170 218 218 218 218 218 218 236 236 236 58 58 58 58 58 58 58 58 58 58 58 58 
          154 154 154 154 154 154 154 154 154 154 30 30 30 30 30 91 91 91 30 30 30 30 30 30 167 223 223 223 223 223 223 223 223 223 223 223 170 218 218 218 218 218 218 218 218 218 236 236 236 58 58 58 58 58 58 58 58 58 58 58 
          154 154 154 154 154 154 154 154 154 154 154 154 30 91 91 91 91 91 91 91 91 30 167 167 167 167 223 223 223 223 223 223 223 223 223 223 218 218 218 218 218 218 218 218 218 218 218 236 236 58 58 58 58 58 58 58 58 58 58 58 
          74 74 74 74 74 74 74 74 74 74 74 74 74 74 74 41 41 41 41 41 41 41 41 41 41 41 142 142 142 142 142 142 209 209 209 209 209 209 209 225 21 21 21 21 21 21 21 21 21 21 21 21 58 58 58 58 101 101 101 101 
          74 74 74 74 74 74 74 74 74 74 74 74 74 74 74 41 41 41 41 41 41 41 41 41 41 142 142 142 142 142 142 142 142 142 209 209 209 209 270 270 21 21 21 21 21 21 21 21 21 21 58 58 58 58 58 58 101 101 101 101 
          74 74 74 74 74 74 74 74 74 74 74 74 74 74 74 41 41 41 41 41 41 41 41 41 41 142 142 142 142 142 142 142 142 142 142 142 86 270 270 270 21 21 21 21 21 21 21 21 21 58 58 58 58 58 58 58 58 58 101 101 
          74 74 74 74 74 74 74 74 74 74 74 74 74 74 74 41 41 41 41 41 41 41 41 41 41 142 142 142 142 142 142 142 142 142 142 86 86 86 270 270 270 21 21 21 21 21 21 21 58 58 58 58 58 58 58 58 58 58 58 58 
          74 74 74 74 74 74 74 74 74 74 74 74 74 74 30 41 41 41 41 41 41 41 41 41 142 142 142 142 142 142 142 142 142 142 142 86 86 86 270 270 270 21 21 21 21 21 21 58 58 58 58 58 58 58 58 58 58 58 58 58 
          74 74 74 74 74 74 74 74 74 74 74 74 30 30 30 30 30 41 41 41 41 41 41 41 142 142 142 142 142 142 142 142 142 142 142 86 86 86 86 270 270 270 21 21 21 21 21 58 58 58 58 58 58 58 58 58 58 58 58 58 
          74 74 74 74 74 74 74 74 74 74 74 30 30 30 30 30 30 30 41 41 41 41 41 41 142 142 142 142 142 86 142 142 142 142 86 86 86 86 86 270 270 270 21 21 21 21 58 58 58 58 58 58 58 58 58 58 58 58 58 58 
          74 74 74 74 74 74 74 74 74 74 30 30 30 30 30 30 30 30 30 30 41 41 41 41 142 142 142 142 86 86 86 86 86 86 86 86 86 86 170 170 170 270 21 21 21 58 58 58 58 58 58 58 58 58 58 58 58 58 58 58 
          74 74 74 74 74 74 74 74 74 30 30 30 30 30 30 30 30 30 30 30 30 30 41 41 142 142 142 86 86 86 86 86 86 170 170 170 170 170 170 170 170 170 170 236 236 236 58 58 58 58 58 58 58 58 58 58 58 58 58 58 
          74 74 74 74 74 74 74 74 74 30 30 30 30 30 30 30 30 30 30 30 30 30 30 142 142 142 86 86 86 86 86 86 86 170 170 170 170 170 170 170 170 170 170 236 236 236 236 58 58 58 58 58 58 58 58 58 58 58 58 58 
          154 154 154 74 74 74 74 74 30 30 30 30 30 30 30 30 30 30 30 30 30 30 30 30 223 223 86 86 86 86 86 86 170 170 170 170 170 170 170 170 170 170 170 236 236 236 236 236 58 58 58 58 58 58 58 58 58 58 58 58 
          154 154 154 154 154 154 30 30 30 30 30 30 30 30 30 30 30 30 30 30 30 30 30 30 223 223 223 223 223 223 223 223 170 170 170 170 170 170 170 170 170 170 170 218 236 236 236 236 236 58 58 58 58 58 58 58 58 58 58 58 
          154 154 154 154 154 154 154 30 30 30 30 30 30 30 30 30 30 30 30 30 30 30 30 30 223 223 223 223 223 223 223 223 223 170 170 170 170 170 170 170 170 218 218 218 218 236 236 236 236 58 58 58 58 58 58 58 58 58 58 58 
          154 154 154 154 154 154 154 154 154 30 30 30 30 30 30 91 91 30 30 30 30 30 30 167 167 223 223 223 223 223 223 223 223 223 223 170 170 170 218 218 218 218 218 218 218 236 236 236 236 58 58 58 58 58 58 58 58 58 58 58 
          154 154 154 154 154 154 154 154 154 154 30 30 30 91 91 91 91 91 91 91 30 30 167 167 167 167 223 223 223 223 223 223 223 223 223 223 218 218 218 218 218 218 218 218 218 218 218 236 236 58 58 58 58 58 58 58 58 58 58 58 
          74 74 74 74 74 74 74 74 74 74 74 74 74 74 41 41 41 41 41 41 41 41 41 41 41 41 142 142 142 142 142 142 142 209 209 209 209 209 270 270 21 21 21 21 21 21 21 21 21 21 21 21 58 58 58 58 101 101 101 101 
          74 74 74 74 74 74 74 74 74 74 74 74 74 74 41 41 41 41 41 41 41 41 41 41 41 41 142 142 142 142 142 142 142 142 142 5 5 5 270 270 270 21 21 21 21 21 21 21 21 21 58 58 58 58 58 58 58 101 101 101 
          74 74 74 74 74 74 74 74 74 74 74 74 74 74 41 41 41 41 41 41 41 41 41 41 41 142 142 142 142 142 142 142 142 142 142 86 86 270 270 270 270 21 21 21 21 21 21 21 21 58 58 58 58 58 58 58 58 58 58 101 
          74 74 74 74 74 74 74 74 74 74 74 74 74 74 41 41 41 41 41 41 41 41 41 41 142 142 142 142 142 142 142 142 142 142 142 86 86 86 270 270 270 270 21 21 21 21 21 21 58 58 58 58 58 58 58 58 58 58 58 58 
          74 74 74 74 74 74 74 74 74 74 74 74 30 30 30 41 41 41 41 41 41 41 41 41 142 142 142 142 142 142 142 142 142 142 86 86 86 86 270 270 270 270 21 21 21 21 21 58 58 58 58 58 58 58 58 58 58 58 58 58 
          74 74 74 74 74 74 74 74 74 74 74 30 30 30 30 30 30 41 41 41 41 41 41 41 142 142 142 142 142 142 142 142 142 142 86 86 86 86 270 270 270 270 270 21 21 21 58 58 58 58 58 58 58 58 58 58 58 58 58 58 
          74 74 74 74 74 74 74 74 74 74 30 30 30 30 30 30 30 30 41 41 41 41 41 41 142 142 142 142 142 142 142 142 86 86 86 86 86 86 170 270 270 270 270 270 236 58 58 58 58 58 58 58 58 58 58 58 58 58 58 58 
          74 74 74 74 74 74 74 74 74 74 30 30 30 30 30 30 30 30 30 30 41 41 41 142 142 142 142 142 142 86 86 86 86 86 86 86 86 170 170 170 270 270 270 236 236 236 58 58 58 58 58 58 58 58 58 58 58 58 58 58 
          74 74 74 74 74 74 74 74 74 30 30 30 30 30 30 30 30 30 30 30 30 30 142 142 142 142 142 142 86 86 86 86 86 86 86 86 170 170 170 170 170 170 270 236 236 236 236 58 58 58 58 58 58 58 58 58 58 58 58 58 
          74 74 74 74 74 74 74 74 30 30 30 30 30 30 30 30 30 30 30 30 30 30 30 142 142 142 142 86 86 86 86 86 86 170 170 170 170 170 170 170 170 170 170 236 236 236 236 236 58 58 58 58 58 58 58 58 58 58 58 58 
          154 154 74 74 74 74 74 30 30 30 30 30 30 30 30 30 30 30 30 30 30 30 30 30 223 223 86 86 86 86 86 86 170 170 170 170 170 170 170 170 170 170 170 236 236 236 236 236 236 58 58 58 58 58 58 58 58 58 58 58 
          154 154 154 154 154 30 30 30 30 30 30 30 30 30 30 30 30 30 30 30 30 30 30 30 223 223 223 86 86 86 86 86 170 170 170 170 170 170 170 170 170 170 170 236 236 236 236 236 236 58 58 58 58 58 58 58 58 58 58 58 
          154 154 154 154 154 154 154 30 30 30 30 30 30 30 30 30 30 30 30 30 30 30 30 30 223 223 223 223 223 223 223 223 223 170 170 170 170 170 170 170 170 218 218 218 236 236 236 236 236 58 58 58 58 58 58 58 58 58 58 58 
          154 154 154 154 154 154 154 154 30 30 30 30 30 30 30 30 30 30 30 30 30 30 30 167 223 223 223 223 223 223 223 223 223 223 170 170 170 170 170 218 218 218 218 218 218 236 236 236 236 58 58 58 58 58 58 58 58 58 58 58 
          154 154 154 154 154 154 154 154 154 30 30 30 30 30 91 91 91 91 30 30 30 30 167 167 167 223 223 223 223 223 223 223 223 223 223 170 170 218 218 218 218 218 218 218 218 218 218 236 236 58 58 58 58 58 58 58 58 58 58 58 
          74 74 74 74 74 74 74 74 74 74 74 74 74 41 41 41 41 41 41 41 41 41 41 41 41 41 142 142 142 142 142 142 142 5 5 5 5 5 270 270 270 21 21 21 21 21 21 21 21 21 21 21 58 58 58 58 101 101 101 101 
          74 74 74 74 74 74 74 74 74 74 74 74 74 41 41 41 41 41 41 41 41 41 41 41 41 41 142 142 142 142 142 142 142 142 5 5 5 5 270 270 270 270 21 21 21 21 21 21 21 21 58 58 58 58 58 58 58 58 101 101 
          74 74 74 74 74 74 74 74 74 74 74 74 74 41 41 41 41 41 41 41 41 41 41 41 41 142 142 142 142 142 142 142 142 142 142 86 86 5 270 270 270 270 270 21 21 21 21 21 21 58 58 58 58 58 58 58 58 58 58 58 
          74 74 74 74 74 74 74 74 74 74 74 74 30 30 41 41 41 41 41 41 41 41 41 41 142 142 142 142 142 142 142 142 142 142 86 86 86 86 270 270 270 270 270 270 21 21 21 58 58 58 58 58 58 58 58 58 58 58 58 58 
          74 74 74 74 74 74 74 74 74 74 74 30 30 30 30 41 41 41 41 41 41 41 41 41 142 142 142 142 142 142 142 142 142 142 86 86 86 86 270 270 270 270 270 270 270 21 58 58 58 58 58 58 58 58 58 58 58 58 58 58 
          74 74 74 74 74 74 74 74 74 74 74 30 30 30 30 30 30 41 41 41 41 41 41 41 142 142 142 142 142 142 142 142 142 86 86 86 86 86 270 270 270 270 270 270 270 58 58 58 58 58 58 58 58 58 58 58 58 58 58 58 
          74 74 74 74 74 74 74 74 74 74 30 30 30 30 30 30 30 30 41 41 41 41 41 41 142 142 142 142 142 142 142 86 86 86 86 86 86 170 170 270 270 270 270 236 236 236 58 58 58 58 58 58 58 58 58 58 58 58 58 58 
          74 74 74 74 74 74 74 74 74 30 30 30 30 30 30 30 30 30 30 30 41 41 41 142 142 142 142 142 142 86 86 86 86 86 86 86 170 170 170 170 270 270 270 236 236 236 236 58 58 58 58 58 58 58 58 58 58 58 58 58 
          74 74 74 74 74 74 74 74 74 30 30 30 30 30 30 30 30 30 30 30 30 30 142 142 142 142 142 142 86 86 86 86 86 86 86 86 170 170 170 170 170 170 236 236 236 236 236 236 58 58 58 58 58 58 58 58 58 58 58 58 
          74 74 74 74 74 74 74 74 30 30 30 30 30 30 30 30 30 30 30 30 30 30 142 142 142 142 142 86 86 86 86 86 86 86 170 170 170 170 170 170 170 170 236 236 236 236 236 236 236 58 58 58 58 58 58 58 58 58 58 58 
          154 74 74 74 122 122 30 30 30 30 30 30 30 30 30 30 30 30 30 30 30 30 30 142 142 142 142 86 86 86 86 86 86 170 170 170 170 170 170 170 170 170 170 236 236 236 236 236 236 58 58 58 58 58 58 58 58 58 58 58 
          154 154 154 122 122 30 30 30 30 30 30 30 30 30 30 30 30 30 30 30 30 30 30 223 223 223 223 86 86 86 86 86 170 170 170 170 170 170 170 170 170 170 218 236 236 236 236 236 236 58 58 58 58 58 58 58 58 58 58 58 
          154 154 154 154 154 154 30 30 30 30 30 30 30 30 30 30 30 30 30 30 30 30 30 223 223 223 223 223 223 223 223 223 170 170 170 170 170 170 170 170 170 218 218 218 236 236 236 236 236 58 58 58 58 58 58 58 58 58 58 58 
          154 154 154 154 154 154 154 30 30 30 30 30 30 30 30 30 30 30 30 30 30 30 30 223 223 223 223 223 223 223 223 223 223 170 170 170 170 170 170 218 218 218 218 218 218 236 236 236 236 250 58 58 58 58 58 58 58 58 58 58 
          154 154 154 154 154 154 154 154 30 30 30 30 30 30 30 30 30 30 30 30 30 30 167 167 223 223 223 223 223 223 223 223 223 223 170 170 170 218 218 218 218 218 218 218 218 218 250 250 250 250 58 58 58 58 58 58 58 58 58 58 
          74 74 74 74 74 74 74 74 74 74 74 74 74 41 41 41 41 41 41 41 41 41 41 41 41 41 41 142 142 5 5 5 5 5 5 5 5 5 5 270 270 21 21 21 21 21 21 21 21 21 21 21 58 58 58 58 58 101 101 101 
          74 74 74 74 74 74 74 74 74 74 74 74 74 41 41 41 41 41 41 41 41 41 41 41 41 41 142 142 142 142 142 142 142 142 5 5 5 5 270 270 270 270 270 21 21 21 21 21 21 21 58 58 58 58 58 58 58 58 58 101 
          74 74 74 74 74 74 74 74 74 74 74 74 74 41 41 41 41 41 41 41 41 41 41 41 41 142 142 142 142 142 142 142 142 142 86 86 5 5 270 270 270 270 270 270 270 21 21 21 21 58 58 58 58 58 58 58 58 58 58 58 
          74 74 74 74 74 74 74 74 74 74 74 74 30 30 41 41 41 41 41 41 41 41 41 41 142 142 142 142 142 142 142 142 142 142 86 86 86 270 270 270 270 270 270 270 270 270 21 58 58 58 58 58 58 58 58 58 58 58 58 58 
          74 74 74 74 74 74 74 74 74 74 74 30 30 30 30 41 41 41 41 41 41 41 41 41 142 142 142 142 142 142 142 142 142 86 86 86 86 166 270 270 270 270 270 270 270 236 58 58 58 58 58 58 58 58 58 58 58 58 58 58 
          74 74 74 74 74 74 74 74 74 74 30 30 30 30 30 30 30 41 41 41 41 41 41 41 142 142 142 142 142 142 142 142 86 86 86 86 86 170 270 270 270 270 270 270 236 236 58 58 58 58 58 58 58 58 58 58 58 58 58 58 
          74 74 74 74 74 74 74 74 74 74 30 30 30 30 30 30 30 30 41 41 41 41 41 41 142 142 142 142 142 142 142 86 86 86 86 86 170 170 170 270 270 270 270 236 236 236 236 58 58 58 58 58 58 58 58 58 58 58 58 58 
          74 74 74 74 74 74 74 74 74 30 30 30 30 30 30 30 30 30 30 30 41 41 41 142 142 142 142 142 142 142 86 86 86 86 86 86 170 170 170 170 270 270 270 236 236 236 236 236 58 58 58 58 58 58 58 58 58 58 58 58 
          74 74 74 74 74 74 74 74 30 30 30 30 30 30 30 30 30 30 30 30 30 41 142 142 142 142 142 142 142 86 86 86 86 86 86 170 170 170 170 170 170 270 236 236 236 236 236 236 236 58 58 58 58 58 58 58 58 58 58 58 
          74 74 74 74 122 122 122 30 30 30 30 30 30 30 30 30 30 30 30 30 30 30 142 142 142 142 142 142 86 86 86 86 86 86 170 170 170 170 170 170 170 170 236 236 236 236 236 236 236 58 58 58 58 58 58 58 58 58 58 58 
          122 122 122 122 122 122 30 30 30 30 30 30 30 30 30 30 30 30 30 30 30 30 30 142 142 142 142 86 86 86 86 86 86 170 170 170 170 170 170 170 170 170 236 236 236 236 236 236 236 58 58 58 58 58 58 58 58 58 58 58 
          122 122 122 122 122 122 30 30 30 30 30 30 30 30 30 30 30 30 30 30 30 30 30 223 223 223 223 86 86 86 86 86 170 170 170 170 170 170 170 170 170 170 250 236 236 236 236 236 236 58 58 58 58 58 58 58 58 58 58 58 
          122 122 122 122 122 122 30 30 30 30 30 30 30 30 30 30 30 30 30 30 30 30 30 223 223 223 223 223 223 86 86 86 170 170 170 170 170 170 170 170 170 218 218 236 236 236 236 236 236 236 58 58 58 58 58 58 58 58 58 58 
          122 122 122 122 122 122 30 30 30 30 30 30 30 30 30 30 30 30 30 30 30 30 223 223 223 223 223 223 223 223 223 223 223 170 170 170 170 170 170 218 218 218 218 218 250 250 250 250 250 250 58 58 58 58 58 58 58 58 58 58 
          122 122 154 154 154 154 154 30 30 30 30 30 30 30 30 30 30 30 30 30 30 30 223 223 223 223 223 223 223 223 223 223 223 223 170 170 170 218 218 218 218 218 218 218 218 250 250 250 250 250 250 58 58 58 58 58 58 58 58 58 
          74 74 74 74 74 74 74 74 74 74 74 74 41 41 41 41 41 41 41 41 41 41 41 41 41 41 41 142 5 5 5 5 5 5 5 5 5 5 5 270 270 270 270 21 21 21 21 21 21 21 21 21 58 58 58 58 58 58 58 101 
          74 74 74 74 74 74 74 74 74 74 74 74 41 41 41 41 41 41 41 41 41 41 41 41 41 41 142 142 142 142 142 5 5 5 5 5 5 5 270 270 270 270 270 270 270 21 21 21 21 21 58 58 58 58 58 58 58 58 58 58 
          74 74 74 74 74 74 74 74 74 74 74 74 41 41 41 41 41 41 41 41 41 41 41 41 41 142 142 142 142 142 142 142 142 142 166 5 5 5 270 270 270 270 270 270 270 270 21 21 21 58 58 58 58 58 58 58 58 58 58 58 
          74 74 74 74 74 74 74 74 74 74 74 30 30 41 41 41 41 41 41 41 41 41 41 41 41 142 142 142 142 142 142 142 142 142 86 86 166 166 270 270 270 270 270 270 270 270 58 58 58 58 58 58 58 58 58 58 58 58 58 58 
          74 74 74 74 74 74 74 74 74 74 74 30 30 30 30 41 41 41 41 41 41 41 41 41 142 142 142 142 142 142 142 142 142 86 86 86 166 166 270 270 270 270 270 270 270 236 236 58 58 58 58 58 58 58 58 58 58 58 58 58 
          74 74 74 74 74 74 74 74 74 74 30 30 30 30 30 30 30 41 41 41 41 41 41 41 142 142 142 142 142 142 142 142 86 86 86 86 166 166 270 270 270 270 270 236 236 236 236 236 58 58 58 58 58 58 58 58 58 58 58 58 
          74 74 74 74 74 74 74 74 74 30 30 30 30 30 30 30 30 30 41 41 41 41 41 41 142 142 142 142 142 142 86 86 86 86 86 86 170 170 170 270 270 270 270 236 236 236 236 236 58 58 58 58 58 58 58 58 58 58 58 58 
          74 74 74 74 74 74 74 74 122 30 30 30 30 30 30 30 30 30 30 30 41 41 41 142 142 142 142 142 142 142 86 86 86 86 86 170 170 170 170 170 270 270 236 236 236 236 236 236 236 58 58 58 58 58 58 58 58 58 58 58 
          74 74 74 122 122 122 122 122 30 30 30 30 30 30 30 30 30 30 30 30 30 41 142 142 142 142 142 142 142 86 86 86 86 86 86 170 170 170 170 170 170 270 236 236 236 236 236 236 236 58 58 58 58 58 58 58 58 58 58 58 
          122 122 122 122 122 122 122 122 30 30 30 30 30 30 30 30 30 30 30 30 30 30 142 142 142 142 142 142 86 86 86 86 86 86 170 170 170 170 170 170 170 250 236 236 236 236 236 236 236 58 58 58 58 58 58 58 58 58 58 58 
          122 122 122 122 122 122 122 30 30 30 30 30 30 30 30 30 30 30 30 30 30 30 30 142 142 142 142 86 86 86 86 86 86 170 170 170 170 170 170 170 170 250 250 236 236 236 236 236 236 236 58 58 58 58 58 58 58 58 58 58 
          122 122 122 122 122 122 30 30 30 30 30 30 30 30 30 30 30 30 30 30 30 30 223 223 223 223 223 86 86 86 86 86 170 170 170 170 170 170 170 170 170 250 250 236 236 236 236 236 236 236 58 58 58 58 58 58 58 58 58 58 
          122 122 122 122 122 122 122 30 30 30 30 30 30 30 30 30 30 30 30 30 30 30 223 223 223 223 223 223 86 86 86 86 170 170 170 170 170 170 170 170 250 250 250 250 250 250 236 236 236 236 58 58 58 58 58 58 58 58 58 58 
          122 122 122 122 122 122 122 30 30 30 30 30 30 30 30 30 30 30 30 30 30 30 223 223 223 223 223 223 223 223 223 223 223 170 170 170 170 170 170 218 250 218 250 250 250 250 250 250 250 250 58 58 58 58 58 58 58 58 58 58 
          122 122 122 122 122 122 122 30 30 30 30 30 30 30 30 30 30 30 30 30 30 30 223 223 223 223 223 223 223 223 223 223 223 223 170 170 170 218 218 218 218 218 218 218 250 250 250 250 250 250 250 58 58 58 58 58 58 58 58 58 
          74 74 74 74 74 74 74 74 74 74 74 74 41 41 41 41 41 41 41 41 41 41 41 41 41 41 41 5 5 5 5 5 5 5 5 5 5 5 5 270 270 270 270 270 270 21 21 21 21 21 21 21 58 58 58 58 58 58 58 37 
          74 74 74 74 74 74 74 74 74 74 74 74 41 41 41 41 41 41 41 41 41 41 41 41 41 41 142 142 142 5 5 5 5 5 5 5 5 166 166 270 270 270 270 270 270 270 21 21 21 21 58 58 58 58 58 58 58 58 58 58 
          74 74 74 74 74 74 74 74 74 74 74 74 41 41 41 41 41 41 41 41 41 41 41 41 41 142 142 142 142 142 142 142 5 5 166 166 166 166 270 270 270 270 270 270 270 270 21 58 58 58 58 58 58 58 58 58 58 58 58 58 
          74 74 74 74 74 74 74 74 74 74 74 30 41 41 41 41 41 41 41 41 41 41 41 41 41 142 142 142 142 142 142 142 142 166 166 166 166 166 270 270 270 270 270 270 270 270 58 58 58 58 58 58 58 58 58 58 58 58 58 58 
          74 74 74 74 74 74 74 74 74 74 30 30 30 30 30 41 41 41 41 41 41 41 41 41 41 142 142 142 142 142 142 142 142 86 166 166 166 166 166 270 270 270 270 270 270 236 236 58 58 58 58 58 58 58 58 58 58 58 58 58 
          74 74 74 74 74 74 74 74 74 222 30 30 30 30 30 30 30 41 41 41 41 41 41 41 142 142 142 142 142 142 142 86 86 86 86 166 166 166 166 270 270 270 270 270 236 236 236 236 58 58 58 58 58 58 58 58 58 58 58 58 
          74 74 74 74 74 74 74 74 74 30 30 30 30 30 30 30 30 30 41 41 41 41 41 41 142 142 142 142 142 142 86 86 86 86 86 86 166 170 166 270 270 270 270 236 236 236 236 236 236 58 58 58 58 58 58 58 58 58 58 58 
          74 74 74 122 122 122 122 122 122 30 30 30 30 30 30 30 30 30 30 30 41 190 41 41 142 142 142 142 142 86 86 86 86 86 86 170 170 170 170 170 270 270 236 236 236 236 236 236 236 236 58 58 58 58 58 58 58 58 58 58 
          122 122 122 122 122 122 122 122 30 30 30 30 30 30 30 30 30 30 30 30 30 190 190 142 142 142 142 142 142 86 86 86 86 86 86 170 170 170 170 170 170 250 236 236 236 236 236 236 236 58 58 58 58 58 58 58 58 58 58 58 
          122 122 122 122 122 122 122 122 30 30 30 30 30 30 30 30 30 30 30 30 30 160 160 142 142 142 142 142 86 86 86 86 86 170 170 170 170 170 170 170 250 250 250 236 236 236 236 236 236 236 58 58 58 58 58 58 58 58 58 58 
          122 122 122 122 122 122 122 122 30 30 30 30 30 30 30 30 30 30 30 30 30 30 223 223 142 142 142 86 86 86 86 86 86 170 170 170 170 170 170 170 250 250 250 236 236 236 236 236 236 236 58 58 58 58 58 58 58 58 58 58 
          122 122 122 122 122 122 122 30 30 30 30 30 30 30 30 30 30 30 30 30 30 30 223 223 223 223 223 86 86 86 86 86 170 170 170 170 170 170 170 170 250 250 250 250 250 236 236 236 236 236 58 58 58 58 58 58 58 58 58 58 
          122 122 122 122 122 122 122 30 30 30 30 30 30 30 30 30 30 30 30 30 30 30 223 223 223 223 223 223 86 86 86 170 170 170 170 170 170 170 170 170 250 250 250 250 250 250 250 250 236 236 58 58 58 58 58 58 58 58 58 58 
          122 122 122 122 122 122 122 30 30 30 30 30 30 30 30 30 30 30 30 30 30 30 223 223 223 223 223 223 223 223 223 223 223 170 170 170 170 170 170 250 250 250 250 250 250 250 250 250 250 236 58 58 58 58 58 58 58 58 58 58 
          122 122 122 122 122 122 122 30 30 30 30 30 30 30 30 30 30 30 30 30 30 30 223 223 223 223 223 223 223 223 223 223 223 223 170 170 170 218 218 218 218 218 250 250 250 250 250 250 250 250 236 58 58 58 58 58 58 58 107 107 
          74 74 74 74 74 74 74 74 222 222 222 214 41 41 41 41 41 41 41 41 41 41 41 41 41 41 5 5 5 5 5 5 5 5 5 57 5 5 166 166 270 270 270 270 270 21 21 21 21 21 21 21 58 58 58 58 58 58 37 37 
          74 74 74 74 74 74 74 74 74 74 222 222 41 41 41 41 41 41 41 41 41 41 41 41 41 41 142 142 5 5 5 5 5 5 5 57 166 166 166 166 270 270 270 270 270 270 21 21 21 21 58 58 58 58 58 58 58 58 58 58 
          74 74 74 74 74 74 74 74 74 74 222 222 41 41 41 41 41 41 41 41 41 41 41 41 41 142 142 142 142 142 5 5 5 166 166 166 166 166 166 270 270 270 270 270 270 270 58 58 58 58 58 58 58 58 58 58 58 58 58 58 
          74 74 74 74 74 74 74 74 74 222 222 222 41 41 41 41 41 41 41 41 41 41 41 41 41 142 142 142 142 142 142 142 166 166 166 166 166 166 166 270 270 270 270 270 270 270 236 58 58 58 58 58 58 58 58 58 58 58 58 58 
          74 74 74 74 74 74 74 74 222 222 222 222 30 30 30 41 41 41 41 41 41 41 41 41 41 142 142 142 142 142 142 142 166 166 166 166 166 166 166 270 270 270 270 270 270 236 236 236 58 58 58 58 58 58 58 58 58 58 58 58 
          74 74 74 74 74 74 74 74 222 222 222 222 30 30 30 30 30 41 41 41 41 41 41 41 41 142 142 142 142 86 86 86 86 86 166 166 166 166 166 270 270 270 270 270 236 236 236 236 236 58 58 58 58 58 58 58 58 58 58 58 
          74 74 74 122 74 74 74 222 222 222 222 30 30 30 30 30 30 30 160 190 190 190 190 41 142 142 142 142 142 86 86 86 86 86 86 166 166 166 166 166 270 270 270 236 236 236 236 236 236 236 58 58 58 58 58 58 58 58 58 58 
          122 122 122 122 122 122 122 122 122 30 30 30 30 30 30 30 30 30 160 160 190 190 190 190 142 142 142 142 86 86 86 86 86 86 86 86 166 166 166 166 270 270 236 236 236 236 236 236 236 236 58 58 58 58 58 58 58 58 58 58 
          122 122 122 122 122 122 122 122 122 30 30 30 30 30 30 30 30 30 30 160 160 160 160 160 142 142 142 86 86 86 86 86 86 86 86 170 170 170 170 170 250 250 236 236 236 236 236 236 236 236 58 58 58 58 58 58 58 58 58 58 
          122 122 122 122 122 122 122 122 30 30 30 30 30 30 30 30 30 30 30 30 160 160 160 160 160 142 86 86 86 86 86 86 86 86 170 170 170 170 170 170 250 250 250 236 236 236 236 236 236 236 58 58 58 58 58 58 58 58 58 58 
          122 122 122 122 122 122 122 122 30 30 30 30 30 30 30 30 30 30 30 30 30 160 160 160 223 142 86 86 86 86 86 86 170 170 170 170 170 170 170 170 250 250 250 250 236 236 236 236 236 236 58 58 58 58 58 58 58 58 58 58 
          122 122 122 122 122 122 122 122 30 30 30 30 30 30 30 30 30 30 30 30 30 30 223 223 223 223 86 86 86 86 86 86 170 170 170 170 170 170 170 170 250 250 250 250 250 250 236 236 236 236 58 58 58 58 58 58 58 58 58 58 
          122 122 122 122 122 122 122 122 30 30 30 30 30 30 30 30 30 30 30 30 30 30 223 223 223 223 223 223 86 86 86 86 170 170 170 170 170 170 170 170 250 250 250 250 250 250 250 250 236 236 58 58 58 58 58 58 58 58 58 58 
          122 122 122 122 122 122 122 122 30 30 30 30 30 30 30 30 30 30 30 30 30 30 223 223 223 223 223 223 86 86 86 223 170 170 170 170 170 170 170 250 250 250 250 250 250 250 250 250 250 236 236 58 58 58 58 58 58 58 107 107 
          122 122 122 122 122 122 122 122 30 30 30 30 30 30 30 30 30 30 30 30 30 223 223 223 223 223 223 223 223 223 223 223 223 223 170 170 170 170 218 218 218 250 250 250 250 250 250 250 250 236 236 58 58 58 58 58 107 107 107 107 
          74 74 74 74 74 74 222 222 222 222 222 180 214 214 214 41 41 41 41 41 41 41 41 41 41 41 5 5 5 5 5 5 5 5 57 57 57 166 166 166 270 270 270 270 270 270 21 21 21 21 21 58 58 58 58 58 58 58 37 37 
          74 74 74 74 74 74 222 222 222 222 222 180 180 214 41 41 41 41 41 41 41 41 41 41 41 41 142 5 5 5 5 5 5 5 57 57 166 166 166 166 270 270 270 270 270 270 270 21 58 58 58 58 58 58 58 58 58 58 58 58 
          74 74 74 74 74 74 74 222 222 222 222 222 222 41 41 41 41 41 41 41 41 41 41 41 41 142 142 142 142 142 5 5 5 166 166 166 166 166 166 166 270 270 270 270 270 270 270 58 58 58 58 58 58 58 58 58 58 58 58 58 
          74 74 74 74 74 74 74 222 222 222 222 222 222 222 41 41 41 41 41 41 41 41 41 41 190 190 142 142 142 142 142 142 166 166 166 166 166 166 166 270 270 270 270 270 270 270 236 236 58 58 58 58 58 58 58 58 58 58 58 58 