<?xml version="1.0"?>
<VTKFile type="RectilinearGrid" version="0.1" byte_order="LittleEndian">
  <RectilinearGrid WholeExtent="0 60 45 60 0 60">
    <Piece Extent="0 60 45 60 0 60">
      <CellData Scalars="grain_id">
        <DataArray type="Int64" Name="grain_id" format="ascii">
          154 154 154 154 154 154 154 154 154 154 154 154 91 91 91 91 91 91 91 91 91 167 167 167 167 167 167 223 223 223 223 223 223 223 223 223 223 218 218 218 218 218 218 218 218 218 218 218 236 58 58 58 58 58 58 58 58 -1 -1 -1 
          154 154 154 154 154 154 154 154 154 154 154 154 91 91 91 91 91 91 91 91 91 167 167 167 167 167 167 167 223 223 223 223 223 223 223 223 223 218 218 218 218 218 218 218 218 218 218 218 218 58 58 58 58 58 203 203 203 -1 -1 -1 
          154 154 154 154 154 154 154 154 154 154 154 91 91 91 91 91 91 91 91 91 167 167 167 167 167 167 167 167 223 223 223 223 223 223 223 223 223 218 218 218 218 218 218 218 218 218 218 218 203 203 203 203 203 203 203 203 203 203 203 203 
          154 154 154 154 154 154 154 154 154 154 154 91 91 91 91 91 91 91 91 91 167 167 167 167 167 167 167 167 167 223 223 223 223 223 223 223 223 218 218 218 218 218 218 218 218 218 218 203 203 203 203 203 203 203 203 203 203 203 203 203 
          154 154 154 154 154 154 154 154 154 154 154 91 91 91 91 91 91 91 91 91 167 167 167 167 167 167 167 167 167 223 223 223 223 223 223 223 223 218 218 218 218 218 218 218 218 218 203 203 203 203 203 203 203 203 203 203 203 203 203 203 
          154 154 154 154 154 154 154 154 154 154 154 91 91 91 91 91 91 91 91 91 167 167 167 167 167 167 167 167 167 167 167 223 223 223 223 223 223 218 218 218 218 218 218 218 218 203 203 203 203 203 203 203 203 203 203 203 203 203 203 203 
          59 59 154 154 154 154 154 154 154 154 154 91 91 91 91 91 91 91 91 167 167 167 167 167 167 167 167 167 167 167 167 167 167 223 223 223 218 218 218 218 218 218 218 218 218 203 203 203 203 203 203 203 203 203 203 203 203 203 203 203 
          59 59 59 59 59 154 154 154 154 154 154 91 91 91 91 91 91 91 91 167 167 167 167 167 167 167 167 167 167 167 167 167 167 167 167 27 218 218 218 218 218 218 218 218 203 203 203 203 203 203 203 203 203 203 203 203 203 203 203 203 
          59 59 59 59 59 59 154 154 154 154 154 91 91 91 91 91 91 238 238 238 167 167 167 167 167 167 167 167 167 167 167 167 167 167 27 27 27 27 218 218 218 218 218 218 203 203 203 203 203 203 203 203 203 203 203 203 203 203 203 203 
          59 59 59 59 59 59 154 154 154 154 154 238 91 91 238 238 238 238 238 238 238 167 167 167 167 167 167 167 167 167 167 167 167 27 27 27 27 27 218 218 218 218 218 218 145 145 203 203 203 203 203 203 203 203 203 203 203 203 203 203 
          59 59 59 59 59 59 59 154 154 154 154 238 238 238 238 238 238 238 238 238 238 238 167 167 167 167 167 167 167 167 167 167 167 27 27 27 27 27 27 218 218 218 145 145 145 145 145 203 203 203 203 203 203 203 203 203 203 203 203 203 
          59 59 59 59 59 59 59 59 154 154 238 238 238 238 238 238 238 238 238 238 238 238 167 167 167 167 167 167 167 167 167 167 167 27 27 27 27 27 27 27 27 145 145 145 145 145 145 203 203 203 203 203 203 203 203 203 203 203 203 203 
          59 59 59 59 59 59 59 59 59 238 238 238 238 238 238 238 238 238 238 238 238 238 238 167 167 167 167 167 167 167 167 167 167 27 27 27 27 27 27 27 145 145 145 145 145 145 145 145 203 203 203 203 203 203 203 203 203 231 231 231 
          59 59 59 59 59 59 59 59 59 238 238 238 238 238 238 238 238 238 238 238 238 238 238 167 167 167 167 167 167 167 167 167 167 27 27 27 27 27 27 145 145 145 145 145 145 145 145 145 203 203 203 203 203 203 203 231 231 231 231 231 
          59 59 59 59 59 59 59 59 59 238 238 238 238 238 238 238 238 238 238 238 238 238 238 238 167 167 167 167 167 167 167 167 167 167 27 27 27 27 145 145 145 145 145 145 145 145 145 145 203 203 203 203 203 203 231 231 231 231 231 231 
          154 154 154 154 154 154 154 154 154 154 154 154 91 91 91 91 91 91 91 91 91 91 167 167 167 167 167 223 223 223 223 223 223 223 223 223 223 218 218 218 218 218 218 218 218 218 218 218 236 58 58 58 58 58 58 58 58 -1 -1 -1 
          154 154 154 154 154 154 154 154 154 154 154 91 91 91 91 91 91 91 91 91 91 167 167 167 167 167 167 223 223 223 223 223 223 223 223 223 223 218 218 218 218 218 218 218 218 218 218 218 218 58 58 58 58 203 203 203 203 203 203 203 
          154 154 154 154 154 154 154 154 154 154 154 91 91 91 91 91 91 91 91 91 91 167 167 167 167 167 167 167 223 223 223 223 223 223 223 223 223 218 218 218 218 218 218 218 218 218 218 218 203 203 203 203 203 203 203 203 203 203 203 203 
          154 154 154 154 154 154 154 154 154 154 91 91 91 91 91 91 91 91 91 91 91 167 167 167 167 167 167 167 223 223 223 223 223 223 223 223 223 218 218 218 218 218 218 218 218 218 218 203 203 203 203 203 203 203 203 203 203 203 203 203 
          154 154 154 154 154 154 154 154 154 154 91 91 91 91 91 91 91 91 91 91 167 167 167 167 167 167 167 167 167 223 223 223 223 223 223 223 223 218 218 218 218 218 218 218 218 218 203 203 203 203 203 203 203 203 203 203 203 203 203 203 
          154 154 154 154 154 154 154 154 154 154 91 91 91 91 91 91 91 91 91 91 167 167 167 167 167 167 167 167 167 167 167 223 223 223 223 223 223 218 218 218 218 218 218 218 218 218 203 203 203 203 203 203 203 203 203 203 203 203 203 203 
          59 59 59 154 154 154 154 154 154 154 91 91 91 91 91 91 91 91 91 91 167 167 167 167 167 167 167 167 167 167 167 167 167 223 223 223 218 218 218 218 218 218 218 218 218 203 203 203 203 203 203 203 203 203 203 203 203 203 203 203 
          59 59 59 59 59 59 154 154 154 154 91 91 91 91 91 91 91 91 91 167 167 167 167 167 167 167 167 167 167 167 167 167 167 167 27 27 27 218 218 218 218 218 218 218 218 203 203 203 203 203 203 203 203 203 203 203 203 203 203 203 
          59 59 59 59 59 59 154 154 154 154 154 91 91 91 91 91 91 238 238 238 238 167 167 167 167 167 167 167 167 167 167 167 167 167 27 27 27 27 218 218 218 218 218 218 218 203 203 203 203 203 203 203 203 203 203 203 203 203 203 231 
          59 59 59 59 59 59 59 154 154 154 238 238 91 91 238 238 238 238 238 238 238 167 167 167 167 167 167 167 167 167 167 167 167 27 27 27 27 27 27 27 27 27 218 145 145 145 203 203 203 203 203 203 203 203 203 203 203 203 203 231 
          59 59 59 59 59 59 59 59 154 154 238 238 238 238 238 238 238 238 238 238 238 238 167 167 167 167 167 167 167 167 167 167 167 27 27 27 27 27 27 27 27 27 145 145 145 145 145 203 203 203 203 203 203 203 203 203 203 203 203 203 
          59 59 59 59 59 59 59 59 59 238 238 238 238 238 238 238 238 238 238 238 238 238 238 167 167 167 167 167 167 167 167 167 167 27 27 27 27 27 27 27 27 145 145 145 145 145 145 145 203 203 203 203 203 203 203 203 203 203 231 231 
          59 59 59 59 59 59 59 59 59 238 238 238 238 238 238 238 238 238 238 238 238 238 238 167 167 167 167 167 167 167 167 167 167 167 27 27 27 27 27 27 145 145 145 145 145 145 145 145 203 203 203 203 203 203 203 231 231 231 231 231 
          59 59 59 59 59 59 59 59 59 238 238 238 238 238 238 238 238 238 238 238 238 238 238 238 167 167 167 167 167 167 167 167 167 167 27 27 27 27 27 145 145 145 145 145 145 145 145 145 145 203 203 203 203 203 231 231 231 231 231 231 
          59 59 59 59 59 59 59 59 59 238 238 238 238 238 238 238 238 238 238 238 238 238 238 238 167 167 167 167 167 167 167 167 167 167 27 27 27 27 27 145 145 145 145 145 145 145 145 145 145 203 203 203 203 203 231 231 231 231 231 231 
          154 154 154 154 154 154 154 154 154 154 154 91 91 91 91 91 91 91 91 91 91 91 167 167 167 167 223 223 223 223 223 223 223 223 223 223 218 218 218 218 218 218 218 218 218 218 218 218 218 58 58 58 58 58 58 58 58 203 203 -1 
          154 154 154 154 154 154 154 154 154 154 91 91 91 91 91 91 91 91 91 91 91 91 167 167 167 167 167 223 223 223 223 223 223 223 223 223 218 218 218 218 218 218 218 218 218 218 218 218 218 218 58 203 203 203 203 203 203 203 203 203 
          154 154 154 154 154 154 154 154 154 154 91 91 91 91 91 91 91 91 91 91 91 91 167 167 167 167 167 167 223 223 223 223 223 223 223 223 218 218 218 218 218 218 218 218 218 218 218 218 203 203 203 203 203 203 203 203 203 203 203 203 
          154 154 154 154 154 154 154 154 154 154 91 91 91 91 91 91 91 91 91 91 91 167 167 167 167 167 167 167 223 223 223 223 223 223 223 223 223 218 218 218 218 218 218 218 218 218 218 218 203 203 203 203 203 203 203 203 203 203 203 203 
          154 154 154 154 154 154 154 154 154 91 91 91 91 91 91 91 91 91 91 91 91 167 167 167 167 167 167 167 167 223 223 223 223 223 223 223 223 218 218 218 218 218 218 218 218 218 218 203 203 203 203 203 203 203 203 203 203 203 203 203 
          59 154 154 154 154 154 154 154 154 91 91 91 91 91 91 91 91 91 91 91 91 167 167 167 167 167 167 167 167 167 167 223 223 223 223 223 223 218 218 218 218 218 218 218 218 218 203 203 203 203 203 203 203 203 203 203 203 203 203 203 
          59 59 59 59 59 154 154 154 154 154 91 91 91 91 91 91 91 91 91 91 91 167 167 167 167 167 167 167 167 167 167 167 167 223 223 27 27 218 218 218 218 218 218 218 218 218 203 203 203 203 203 203 203 203 203 203 203 203 203 203 
          59 59 59 59 59 59 154 154 154 154 91 91 91 91 91 91 91 91 91 91 167 167 167 167 167 167 167 167 167 167 167 167 167 167 27 27 27 27 218 218 218 218 218 218 218 203 203 203 203 203 203 203 203 203 203 203 203 203 203 203 
          59 59 59 59 59 59 59 154 154 154 91 91 91 91 91 91 91 238 238 238 238 167 167 167 167 167 167 167 167 167 167 167 167 167 27 27 27 27 27 27 27 27 27 27 27 203 203 203 203 203 203 203 203 203 203 203 203 203 203 231 
          59 59 59 59 59 59 59 59 154 154 238 238 91 91 238 238 238 238 238 238 238 238 167 167 167 167 167 167 167 167 167 167 167 167 27 27 27 27 27 27 27 27 27 27 145 145 203 203 203 203 203 203 203 203 203 203 203 203 231 231 
          59 59 59 59 59 59 59 59 154 238 238 238 238 238 238 238 238 238 238 238 238 238 167 167 167 167 167 167 167 167 167 167 167 27 27 27 27 27 27 27 27 27 27 145 145 145 145 203 203 203 203 203 203 203 203 203 203 231 231 231 
          59 59 59 59 59 59 59 59 59 238 238 238 238 238 238 238 238 238 238 238 238 238 238 167 167 167 167 167 167 167 167 167 167 167 27 27 27 27 27 27 27 145 145 145 145 145 145 145 203 203 203 203 203 203 203 231 231 231 231 231 
          59 59 59 59 59 59 59 59 59 238 238 238 238 238 238 238 238 238 238 238 238 238 238 167 167 167 167 167 167 167 167 167 167 167 27 27 27 27 27 27 145 145 145 145 145 145 145 145 145 203 203 203 203 203 231 231 231 231 231 231 
          59 59 59 59 59 59 59 59 59 238 238 238 238 238 238 238 238 238 238 238 238 238 238 238 167 167 167 167 167 167 167 167 167 167 27 27 27 27 27 145 145 145 145 145 145 145 145 145 145 203 203 203 203 231 231 231 231 231 231 231 
          59 59 59 59 59 59 59 59 59 238 238 238 238 238 238 238 238 238 238 238 238 238 238 238 167 167 167 167 167 167 167 167 167 167 27 27 27 27 27 145 145 145 145 145 145 145 145 145 145 203 203 203 203 231 231 231 231 231 231 231 
          154 154 154 154 154 154 154 154 154 154 30 30 91 91 91 91 91 91 91 91 91 91 167 167 167 167 223 223 223 223 223 223 223 223 223 223 218 218 218 218 218 218 218 218 218 218 218 218 218 250 58 58 58 58 58 58 203 203 203 -1 
          154 154 154 154 154 154 154 154 154 154 91 91 91 91 91 91 91 91 91 91 91 91 167 167 167 167 167 223 223 223 223 223 223 223 223 223 218 218 218 218 218 218 218 218 218 218 218 218 218 218 203 203 203 203 203 203 203 203 203 203 
          154 154 154 154 154 154 154 154 154 91 91 91 91 91 91 91 91 91 91 91 91 91 167 167 167 167 167 223 223 223 223 223 223 223 223 223 218 218 218 218 218 218 218 218 218 218 218 218 218 203 203 203 203 203 203 203 203 203 203 203 
          154 154 154 154 154 154 154 154 154 91 91 91 91 91 91 91 91 91 91 91 91 91 167 167 167 167 167 167 223 223 223 223 223 223 223 223 218 218 218 218 218 218 218 218 218 218 218 218 203 203 203 203 203 203 203 203 203 203 203 203 
          59 154 154 154 154 154 154 154 154 91 91 91 91 91 91 91 91 91 91 91 91 91 167 167 167 167 167 167 167 223 223 223 223 223 223 223 223 218 218 218 218 218 218 218 218 218 218 218 203 203 203 203 203 203 203 203 203 203 203 203 
          59 59 59 154 154 154 154 154 154 91 91 91 91 91 91 91 91 91 91 91 91 91 167 167 167 167 167 167 167 167 167 223 223 223 223 223 223 218 218 218 218 218 218 218 218 218 218 203 203 203 203 203 203 203 203 203 203 203 203 203 
          59 59 59 59 59 59 154 154 154 91 91 91 91 91 91 91 91 91 91 91 91 167 167 167 167 167 167 167 167 167 167 167 167 223 223 27 27 27 218 218 218 218 218 218 218 218 27 203 203 203 203 203 203 203 203 203 203 203 203 146 
          59 59 59 59 59 59 59 154 154 91 91 91 91 91 91 91 91 91 91 91 91 167 167 167 167 167 167 167 167 167 167 167 167 167 27 27 27 27 27 218 218 27 27 27 27 27 203 203 203 203 203 203 203 203 203 203 203 203 203 146 
          59 59 59 59 59 59 59 59 154 91 91 91 91 91 91 91 91 91 91 238 238 167 167 167 167 167 167 167 167 167 167 167 167 167 27 27 27 27 27 27 27 27 27 27 27 27 203 203 203 203 203 203 203 203 203 203 203 203 203 146 
          59 59 59 59 59 59 59 59 154 91 91 91 91 91 91 238 238 238 238 238 238 167 167 167 167 167 167 167 167 167 167 167 167 167 27 27 27 27 27 27 27 27 27 27 145 145 145 203 203 203 203 203 203 203 203 203 203 203 231 231 
          59 59 59 59 59 59 59 59 59 238 238 238 238 238 238 238 238 238 238 238 238 238 167 167 167 167 167 167 167 167 167 167 167 167 27 27 27 27 27 27 27 27 27 145 145 145 145 145 203 203 203 203 203 203 203 203 203 231 231 231 
          59 59 59 59 59 59 59 59 82 238 238 238 238 238 238 238 238 238 238 238 238 238 238 167 167 167 167 167 167 167 167 167 167 167 27 27 27 27 27 27 27 27 145 145 145 145 145 145 203 203 203 203 203 203 231 231 231 231 231 231 
          59 59 59 59 59 59 59 59 59 238 238 238 238 238 238 238 238 238 238 238 238 238 238 167 167 167 167 167 167 167 167 167 167 167 27 27 27 27 27 27 27 145 145 145 145 145 145 145 145 203 203 203 203 203 231 231 231 231 231 231 
          59 59 59 59 59 59 59 59 59 238 238 238 238 238 238 238 238 238 238 238 238 238 238 238 167 167 167 167 167 167 167 167 167 167 27 27 27 27 27 27 145 145 145 145 145 145 145 145 145 145 203 203 203 231 231 231 231 231 231 231 
          59 59 59 59 59 59 59 59 59 238 238 238 238 238 238 238 238 238 238 238 238 238 238 238 167 167 167 167 167 167 167 167 167 167 27 27 27 27 27 145 145 145 145 145 145 145 145 145 145 145 203 203 231 231 231 231 231 231 231 231 
          154 154 154 154 154 154 154 154 154 30 30 30 30 91 91 91 91 91 91 91 91 91 167 167 167 223 223 223 223 223 223 223 223 223 223 223 218 218 218 218 218 218 218 218 218 218 218 218 250 250 250 250 58 58 203 203 203 203 203 -1 
          154 154 154 154 154 154 154 154 154 91 91 91 91 91 91 91 91 91 91 91 91 91 167 167 167 167 167 223 223 223 223 223 223 223 223 223 218 218 218 218 218 218 218 218 218 218 218 218 218 218 203 203 203 203 203 203 203 203 203 -1 
          154 154 154 154 154 154 154 154 91 91 91 91 91 91 91 91 91 91 91 91 91 91 167 167 167 167 167 223 223 223 223 223 223 223 223 223 218 218 218 218 218 218 218 218 218 218 218 218 218 203 203 203 203 203 203 203 203 203 203 203 
          154 154 154 154 154 154 154 154 91 91 91 91 91 91 91 91 91 91 91 91 91 91 167 167 167 167 167 167 223 223 223 223 223 223 223 223 218 218 218 218 218 218 218 218 218 218 218 218 218 203 203 203 203 203 203 203 203 203 203 203 
          59 154 154 154 154 154 154 154 91 91 91 91 91 91 91 91 91 91 91 91 91 91 167 167 167 167 167 167 167 223 223 223 223 223 223 223 218 218 218 218 218 218 218 218 218 218 218 218 203 203 203 203 203 203 203 203 203 203 203 146 
          59 59 59 59 154 154 154 154 91 91 91 91 91 91 91 91 91 91 91 91 91 91 167 167 167 167 167 167 167 167 167 223 223 223 223 223 27 218 218 218 218 218 218 218 218 218 218 27 203 203 203 203 203 203 203 203 203 203 203 146 
          59 59 59 59 59 59 59 154 91 91 91 91 91 91 91 91 91 91 91 91 91 91 167 167 167 167 167 167 167 167 167 167 167 223 27 27 27 27 27 218 218 218 218 27 27 27 27 27 203 203 203 203 203 203 203 203 203 203 146 146 
          59 59 59 59 59 59 59 59 154 91 91 91 91 91 91 91 91 91 91 91 91 167 167 167 167 167 167 167 167 167 167 167 167 167 27 27 27 27 27 27 27 27 27 27 27 27 27 203 203 203 203 203 203 203 203 203 203 203 146 146 
          59 59 59 59 59 59 59 59 154 91 91 91 91 91 91 91 91 91 91 91 238 167 167 167 167 167 167 167 167 167 167 167 167 167 27 27 27 27 27 27 27 27 27 27 27 27 203 203 203 203 203 203 203 203 203 203 203 203 146 146 
          59 59 59 59 59 59 59 59 82 91 91 91 91 91 91 91 91 238 238 238 238 167 167 167 167 167 167 167 167 167 167 167 167 167 27 27 27 27 27 27 27 27 27 27 27 145 145 203 203 203 203 203 203 203 203 203 203 203 231 146 
          59 59 59 59 59 59 59 82 82 91 91 91 91 238 238 238 238 238 238 238 238 238 167 167 167 167 167 167 167 167 167 167 167 167 27 27 27 27 27 27 27 27 27 145 145 145 145 145 203 203 203 203 203 203 203 203 231 231 231 231 
          59 59 59 59 59 59 59 82 82 82 238 238 238 238 238 238 238 238 238 238 238 238 167 167 167 167 167 167 167 167 167 167 167 167 27 27 27 27 27 27 27 27 145 145 145 145 145 145 145 203 203 203 203 203 231 231 231 231 231 231 
          59 59 59 59 59 59 82 82 82 238 238 238 238 238 238 238 238 238 238 238 238 238 238 167 167 167 167 167 167 167 167 167 167 167 27 27 27 27 27 27 27 145 145 145 145 145 145 145 145 145 203 203 203 231 231 231 231 231 231 231 
          59 59 59 59 59 59 59 82 82 238 238 238 238 238 238 238 238 238 238 238 238 238 238 167 167 167 167 167 167 167 167 167 167 167 27 27 27 27 27 27 145 145 145 145 145 145 145 145 145 145 203 231 231 231 231 231 231 231 231 231 
          59 59 59 59 59 59 59 59 82 238 238 238 238 238 238 238 238 238 238 238 238 238 238 238 167 167 167 167 167 167 167 167 167 167 27 27 27 27 27 145 145 145 145 145 145 145 145 145 145 145 231 231 231 231 231 231 231 231 231 231 
          122 122 154 154 154 154 154 154 30 30 30 30 30 30 30 91 91 91 91 91 91 91 167 223 223 223 223 223 223 223 223 223 223 223 223 223 218 218 218 218 218 218 218 218 218 218 218 250 250 250 250 250 58 203 203 203 203 203 203 -1 
          122 154 154 154 154 154 154 154 154 91 91 30 91 91 91 91 91 91 91 91 91 91 167 167 167 167 223 223 223 223 223 223 223 223 223 223 218 218 218 218 218 218 218 218 218 218 218 218 218 250 250 203 203 203 203 203 203 203 203 -1 
          122 154 154 154 154 154 154 154 91 91 91 91 91 91 91 91 91 91 91 91 91 91 167 167 167 167 167 223 223 223 223 223 223 223 223 223 218 218 218 218 218 218 218 218 218 218 218 218 218 218 203 203 203 203 203 203 203 203 203 203 
          82 154 154 154 154 154 154 154 91 91 91 91 91 91 91 91 91 91 91 91 91 91 167 167 167 167 167 167 223 223 223 223 223 223 223 223 218 218 218 218 218 218 218 218 218 218 218 218 218 203 203 203 203 203 203 203 203 203 203 146 
          59 154 154 154 154 154 154 154 91 91 91 91 91 91 91 91 91 91 91 91 91 91 167 167 167 167 167 167 167 223 223 223 223 223 223 223 27 218 218 218 218 218 218 218 218 218 218 218 218 203 203 203 203 203 203 203 203 203 146 146 
          59 59 59 154 154 154 154 154 91 91 91 91 91 91 91 91 91 91 91 91 91 91 167 167 167 167 167 167 167 167 223 223 223 223 223 27 27 27 218 218 218 218 218 218 218 218 218 218 203 203 203 203 203 203 203 203 203 203 146 146 
          59 59 59 59 59 59 59 154 91 91 91 91 91 91 91 91 91 91 91 91 91 91 167 167 167 167 167 167 167 167 167 167 167 223 27 27 27 27 27 27 27 27 27 27 27 27 27 27 203 203 203 203 203 203 203 203 203 146 146 146 
          59 59 59 59 59 59 59 59 91 91 91 91 91 91 91 91 91 91 91 91 91 167 167 167 167 167 167 167 167 167 167 167 167 167 27 27 27 27 27 27 27 27 27 27 27 27 27 203 203 203 203 203 203 203 203 203 203 146 146 146 
          59 59 59 59 59 59 59 82 82 91 91 91 91 91 91 91 91 91 91 91 91 167 167 167 167 167 167 167 167 167 167 167 167 167 27 27 27 27 27 27 27 27 27 27 27 27 145 203 203 203 203 203 203 203 203 203 203 146 146 146 
          271 59 59 59 59 59 82 82 82 91 91 91 91 91 91 91 91 91 238 238 238 167 167 167 167 167 167 167 167 167 167 167 167 27 27 27 27 27 27 27 27 27 27 27 27 145 145 203 203 203 203 203 203 203 203 203 203 146 146 146 
          59 59 59 59 59 82 82 82 82 91 91 91 91 91 91 238 238 238 238 238 238 238 167 167 167 167 167 167 167 167 167 167 167 27 27 27 27 27 27 27 27 27 27 27 145 145 145 145 203 203 203 203 203 203 203 203 231 231 146 146 
          59 271 271 271 59 82 82 82 82 82 91 91 91 238 238 238 238 238 238 238 238 238 167 167 167 167 167 167 167 167 167 167 167 27 27 27 27 27 27 27 27 27 243 145 145 145 145 145 145 203 203 203 203 203 203 231 231 231 231 231 
          59 59 271 59 59 82 82 82 82 82 91 91 238 238 238 238 238 238 238 238 238 238 238 167 167 167 167 167 167 167 167 167 167 27 27 27 27 27 27 27 27 27 145 145 145 145 145 145 145 145 203 203 203 231 231 231 231 231 231 231 
          59 59 59 59 59 82 82 82 82 82 238 238 238 238 238 238 238 238 238 238 238 238 238 167 167 167 167 167 167 167 167 167 167 27 27 27 27 27 27 27 145 145 145 145 145 145 145 145 145 145 145 231 231 231 231 231 231 231 231 231 
          59 59 59 59 59 59 82 82 82 82 238 238 238 238 238 238 238 238 238 238 238 238 238 238 167 167 167 167 167 167 167 167 167 125 125 125 27 27 27 145 145 145 145 145 145 145 145 145 145 145 145 231 231 231 231 231 231 231 231 231 
          122 122 122 122 154 154 154 30 30 30 30 30 30 30 30 91 91 91 91 91 91 91 223 223 223 223 223 223 223 223 223 223 223 223 223 223 218 218 218 218 218 218 218 218 218 218 250 250 250 250 250 58 203 203 203 203 203 203 203 107 
          122 122 122 154 154 154 154 154 30 30 30 30 30 91 91 91 91 91 91 91 91 91 167 167 167 223 223 223 223 223 223 223 223 223 223 223 218 218 218 218 218 218 218 218 218 218 218 250 250 250 250 203 203 203 203 203 203 203 203 107 
          82 82 154 154 154 154 154 154 91 91 91 91 91 91 91 91 91 91 91 91 91 91 167 167 167 167 223 223 223 223 223 223 223 223 223 223 218 218 218 218 218 218 218 218 218 218 218 218 218 218 203 203 203 203 203 203 203 203 203 107 
          82 82 154 154 154 154 154 154 91 91 91 91 91 91 91 91 91 91 91 91 91 91 167 167 167 167 167 223 223 223 223 223 223 223 223 218 218 218 218 218 218 218 218 218 218 218 218 218 218 218 203 203 203 203 203 203 203 203 146 146 
          82 82 154 154 154 154 154 154 91 91 91 91 91 91 91 91 91 91 91 91 91 91 167 167 167 167 167 167 223 223 223 223 223 223 223 27 27 27 218 218 218 218 218 218 218 218 218 218 218 203 203 203 203 203 203 203 203 146 146 146 
          82 82 82 82 82 154 154 154 91 91 91 91 91 91 91 91 91 91 91 91 91 91 167 167 167 167 167 167 167 223 223 223 223 223 223 27 27 27 27 27 27 27 27 27 27 218 218 218 218 203 203 203 203 203 203 203 203 146 146 146 
          271 82 82 82 82 82 82 82 91 91 91 91 91 91 91 91 91 91 91 91 91 91 167 167 167 167 167 167 167 167 223 223 223 223 27 27 27 27 27 27 27 27 27 27 27 27 27 27 203 203 203 203 203 203 203 203 146 146 146 146 
          271 271 271 271 82 82 82 82 82 91 91 91 91 91 91 91 91 91 91 91 91 167 167 167 167 167 167 167 167 167 167 167 167 27 27 27 27 27 27 27 27 27 27 27 27 27 27 203 203 203 203 203 203 203 203 203 146 146 146 146 
          271 271 271 271 82 82 82 82 82 91 91 91 91 91 91 91 91 91 91 91 167 167 167 167 167 167 167 167 167 167 167 167 167 27 27 27 27 27 27 27 27 27 27 27 27 27 145 145 203 203 203 203 203 203 203 203 203 146 146 146 
          271 271 271 271 82 82 82 82 82 91 91 91 91 91 91 91 91 91 238 238 238 167 167 167 167 167 167 167 167 167 167 167 167 27 27 27 27 27 27 27 27 27 27 27 27 145 145 145 203 203 203 203 203 203 203 203 203 146 146 146 
          271 271 271 271 82 82 82 82 82 91 91 91 91 91 91 91 238 238 238 238 238 167 167 167 167 167 167 167 167 167 167 167 167 27 27 27 27 27 27 27 27 27 27 27 145 145 145 145 203 203 203 203 203 203 203 203 231 146 146 146 
          271 271 271 271 82 82 82 82 82 82 91 91 91 91 238 238 238 238 238 238 238 238 167 167 167 167 167 167 167 171 167 167 167 27 27 27 27 27 27 27 27 27 243 243 145 145 145 145 145 203 203 203 203 203 231 231 231 231 231 231 
          59 271 271 271 82 82 82 82 82 82 91 91 91 91 238 238 238 238 238 238 238 238 238 167 167 167 167 167 171 171 171 167 167 27 27 27 27 27 27 27 27 27 243 243 145 145 145 145 145 145 203 203 231 231 231 231 231 231 231 231 
          59 59 271 271 82 82 82 82 82 82 91 91 91 238 238 238 238 238 238 238 238 238 238 167 167 167 167 171 171 171 171 167 125 125 125 27 27 27 27 27 27 145 145 145 145 145 145 145 145 145 145 145 231 231 231 231 231 231 231 231 
          59 59 59 271 59 82 82 82 82 82 91 91 238 238 238 238 238 238 238 238 238 238 238 238 167 167 167 171 171 171 171 171 125 125 125 125 125 125 27 125 145 145 145 145 145 145 145 145 145 145 145 145 231 231 231 231 231 231 231 231 
          122 122 122 122 122 122 122 122 30 30 30 30 30 30 30 91 91 91 91 91 91 91 223 223 223 223 223 223 223 223 223 223 223 223 223 170 218 218 218 218 218 218 218 218 250 250 250 250 250 250 236 58 203 203 203 203 203 107 107 107 
          122 122 122 122 122 122 122 122 30 30 30 30 30 91 91 91 91 91 91 91 91 91 167 167 167 223 223 223 223 223 223 223 223 223 223 223 218 218 218 218 218 218 218 218 218 218 250 250 250 250 250 203 203 203 203 203 203 203 107 107 
          82 82 82 154 154 154 154 38 91 91 91 91 91 91 91 91 91 91 91 91 91 91 167 167 167 167 223 223 223 223 223 223 223 223 223 218 218 218 218 218 218 218 218 218 218 218 218 218 250 250 146 203 203 203 203 203 203 203 107 107 
          82 82 82 82 154 154 154 82 91 91 91 91 91 91 91 91 91 91 91 91 91 91 167 167 167 167 167 223 223 223 223 223 223 223 223 27 27 27 218 218 218 218 218 218 218 218 218 218 218 218 203 203 203 203 203 203 203 146 146 107 
          82 82 82 82 82 82 82 82 91 91 91 91 91 91 91 91 91 91 91 91 91 91 167 167 167 167 167 223 223 223 223 223 223 223 223 27 27 27 27 218 218 27 218 218 218 218 218 218 218 218 203 203 203 203 203 203 146 146 146 146 
          82 82 82 82 82 82 82 82 82 91 91 91 91 91 91 91 91 91 91 91 91 91 167 167 167 167 167 167 223 223 223 223 223 223 27 27 27 27 27 27 27 27 27 27 27 218 218 218 218 203 203 203 203 203 203 203 146 146 146 146 
          82 82 82 82 82 82 82 82 82 82 91 91 91 91 91 91 91 91 91 91 91 167 167 167 167 167 167 167 167 223 223 223 223 223 27 27 27 27 27 27 27 27 27 27 27 27 27 27 203 203 203 203 203 203 203 203 146 146 146 146 
          271 82 82 82 82 82 82 82 82 82 91 91 91 91 91 91 91 91 91 91 91 167 167 167 167 167 167 167 167 167 167 167 223 27 27 27 27 27 27 27 27 27 27 27 27 27 27 145 203 203 203 203 203 203 203 203 146 146 146 146 
          271 271 271 82 82 82 82 82 82 82 91 91 91 91 91 91 91 91 91 91 167 167 167 167 167 167 167 167 167 167 167 167 167 27 27 27 27 27 27 27 27 27 27 27 27 27 145 145 203 203 203 203 203 203 203 203 146 146 146 146 
          271 271 271 82 82 82 82 82 82 82 91 91 91 91 91 91 91 91 238 238 238 167 167 167 167 167 167 171 171 171 167 167 27 27 27 27 27 27 27 27 27 27 27 27 27 145 145 145 145 203 203 203 203 203 203 146 146 146 146 146 
          271 271 271 82 82 82 82 82 82 82 91 91 91 91 91 91 238 238 238 238 238 167 167 167 167 167 171 171 171 171 171 167 27 27 27 27 27 27 27 27 27 27 27 27 243 145 145 145 145 203 203 203 203 231 231 146 146 146 146 146 
          271 271 271 82 82 82 82 82 82 82 91 91 91 91 238 238 238 238 238 238 238 238 167 167 167 167 171 171 171 171 171 171 27 27 27 27 27 27 27 27 27 27 27 243 243 145 145 145 145 145 203 203 203 231 231 231 231 231 231 231 
          271 271 271 82 82 82 82 82 82 82 91 91 91 91 238 238 238 238 238 238 238 238 167 167 167 171 171 171 171 171 171 171 125 125 125 27 27 27 27 27 27 27 243 243 243 145 145 145 145 145 145 145 231 231 231 231 231 231 231 231 
          271 271 271 271 82 82 82 82 82 82 91 91 91 91 238 238 238 238 238 238 238 238 238 167 167 171 171 171 171 171 171 171 125 125 125 125 125 27 27 27 125 145 145 145 145 145 145 145 145 145 145 145 231 231 231 231 231 231 231 231 
          271 271 271 271 271 82 82 82 82 82 91 91 91 238 238 238 238 238 238 238 238 238 238 171 171 171 171 171 171 171 171 171 125 125 125 125 125 125 125 125 125 145 145 145 145 145 145 145 145 145 145 145 231 231 231 231 231 231 231 231 
          122 122 122 122 122 122 122 122 30 30 30 30 30 30 30 91 91 91 91 91 91 91 223 223 223 223 223 223 223 223 223 223 223 223 223 170 170 218 218 218 218 218 218 250 250 250 250 250 250 250 236 236 146 146 203 203 107 107 107 107 
          122 122 122 122 38 38 38 38 38 30 30 30 30 30 91 91 91 91 91 91 91 91 167 167 223 223 223 223 223 223 223 223 223 223 223 170 27 27 218 218 218 218 218 218 218 250 250 250 250 250 146 146 146 146 203 203 203 107 107 107 
          82 82 82 82 38 38 38 38 38 30 91 91 91 91 91 91 91 91 91 91 91 91 167 167 167 223 223 223 223 223 223 223 223 223 223 27 27 27 27 218 218 218 218 218 218 218 218 250 250 146 146 146 146 146 203 203 203 107 107 107 
          82 82 82 82 82 82 38 38 82 82 91 91 91 91 91 91 91 91 91 91 91 91 167 167 167 167 223 223 223 223 223 223 223 223 223 27 27 27 27 27 27 218 218 218 218 218 218 218 218 146 146 146 146 146 146 203 146 146 107 107 
          82 82 82 82 82 82 82 82 82 82 91 91 91 91 91 91 91 91 91 91 91 91 167 167 167 167 167 223 223 223 223 223 223 223 27 27 27 27 27 27 27 27 27 27 218 218 218 218 218 146 146 146 146 146 146 146 146 146 146 107 
          82 82 82 82 82 82 82 82 82 82 91 91 91 91 91 91 91 91 91 91 91 91 167 167 167 167 167 171 223 223 223 223 223 223 27 27 27 27 27 27 27 27 27 27 27 27 27 218 218 146 146 146 146 146 146 146 146 146 146 146 
          82 82 82 82 82 82 82 82 82 82 91 91 91 91 91 91 91 91 91 91 91 167 167 167 167 167 171 171 171 223 223 223 223 223 27 27 27 27 27 27 27 27 27 27 27 27 27 145 243 203 146 146 146 146 146 146 146 146 146 146 
          271 82 82 82 82 82 82 82 82 82 82 91 91 91 91 91 91 91 91 91 91 167 167 167 167 167 171 171 171 171 223 223 223 27 27 27 27 27 27 27 27 27 27 27 27 27 145 145 243 203 146 146 146 146 146 146 146 146 146 146 