<?xml version="1.0"?>
<VTKFile type="RectilinearGrid" version="0.1" byte_order="LittleEndian">
  <RectilinearGrid WholeExtent="0 60 15 30 0 60">
    <Piece Extent="0 60 15 30 0 60">
      <CellData Scalars="grain_id">
        <DataArray type="Int64" Name="grain_id" format="ascii">
          -1 178 178 178 178 178 178 178 178 178 178 178 178 178 234 234 234 234 234 234 234 234 234 234 234 234 12 12 12 12 12 12 116 116 116 116 116 116 116 -1 -1 100 100 100 100 100 68 68 68 -1 -1 -1 -1 -1 -1 -1 -1 101 101 101 
          -1 178 178 178 178 178 178 178 178 178 178 178 178 178 234 234 234 234 234 234 234 234 234 234 234 1 1 12 12 12 12 116 116 116 116 116 116 116 116 -1 -1 -1 -1 -1 100 68 68 68 68 -1 -1 -1 -1 -1 -1 101 101 101 101 101 
          -1 178 178 178 178 178 178 178 178 178 178 178 178 178 234 234 234 234 234 234 234 234 234 234 234 1 1 1 1 12 12 116 116 116 116 116 116 116 -1 -1 -1 -1 -1 -1 -1 68 68 68 68 68 -1 -1 -1 -1 101 101 101 101 101 101 
          -1 -1 178 178 178 178 178 178 178 178 178 178 178 178 234 234 234 234 234 234 234 234 234 234 1 1 1 1 1 1 116 116 116 116 116 116 116 -1 -1 -1 225 225 225 225 225 -1 -1 68 68 68 -1 -1 -1 101 101 101 101 101 101 101 
          -1 -1 178 178 178 178 178 178 178 178 178 178 178 234 234 234 234 234 234 234 234 234 234 234 1 1 1 1 1 1 116 116 116 116 116 116 225 225 225 225 225 225 225 225 225 225 21 -1 -1 68 -1 -1 101 101 101 101 101 101 101 101 
          -1 -1 -1 -1 -1 -1 -1 -1 178 178 178 178 178 234 234 234 234 234 234 234 234 234 234 234 1 1 1 1 1 1 209 116 116 116 209 209 225 225 225 225 225 225 225 225 225 225 21 21 21 21 -1 101 101 101 101 101 101 101 101 101 
          -1 -1 -1 -1 -1 -1 -1 -1 -1 -1 -1 -1 234 234 234 234 234 234 234 234 234 234 234 234 1 1 1 1 1 209 209 209 209 209 209 209 225 225 225 225 225 225 225 225 225 21 21 21 21 21 101 101 101 101 101 101 101 101 101 101 
          -1 -1 -1 -1 -1 -1 -1 -1 -1 -1 -1 -1 234 234 234 234 234 234 234 234 234 234 234 234 249 249 249 249 209 209 209 209 209 209 209 209 225 225 225 225 225 225 225 225 21 21 21 21 21 21 21 101 101 101 101 101 101 101 101 101 
          -1 -1 -1 -1 -1 -1 -1 -1 -1 -1 -1 -1 -1 234 234 234 234 234 234 234 234 234 234 249 249 249 249 249 209 209 209 209 209 209 209 209 225 225 225 225 225 225 225 225 21 21 21 21 21 21 21 101 101 101 101 101 101 101 101 101 
          -1 -1 -1 -1 -1 -1 -1 -1 -1 -1 -1 -1 -1 234 234 234 234 234 234 234 234 234 249 249 249 249 249 209 209 209 209 209 209 209 209 209 225 225 225 225 225 225 225 21 21 21 21 21 21 21 21 101 101 101 101 101 101 101 101 101 
          -1 -1 -1 -1 -1 -1 -1 -1 -1 -1 -1 -1 -1 234 234 234 234 41 41 41 41 41 249 249 249 249 249 209 209 209 209 209 209 209 209 209 225 225 225 225 225 225 225 21 21 21 21 21 21 21 21 21 101 101 101 101 101 101 101 101 
          -1 -1 74 74 74 74 -1 -1 -1 -1 -1 -1 -1 -1 234 41 41 41 41 41 41 41 249 249 249 249 249 209 209 209 209 209 209 209 209 209 225 225 225 225 225 225 21 21 21 21 21 21 21 21 21 21 101 101 101 101 101 101 101 101 
          -1 74 74 74 74 74 74 74 74 -1 -1 -1 -1 -1 41 41 41 41 41 41 41 41 249 249 249 249 249 209 209 209 209 209 209 209 209 209 225 225 225 225 225 225 21 21 21 21 21 21 21 21 21 21 21 101 101 101 101 101 101 101 
          74 74 74 74 74 74 74 74 74 74 74 74 -1 -1 41 41 41 41 41 41 41 41 41 249 249 249 -1 5 209 209 209 209 209 209 209 209 209 225 225 225 225 225 21 21 21 21 21 21 21 21 21 21 21 101 101 101 101 101 101 101 
          74 74 74 74 74 74 74 74 74 74 74 74 74 74 -1 41 41 41 41 41 41 41 41 249 249 -1 -1 5 209 209 209 209 209 209 209 209 209 225 225 225 225 21 21 21 21 21 21 21 21 21 21 21 21 58 101 101 101 101 101 101 
          -1 178 178 178 178 178 178 178 178 178 178 178 178 178 234 234 234 234 234 234 234 234 234 234 234 234 12 12 12 12 12 116 116 116 116 116 116 116 116 116 68 68 68 68 68 68 68 68 68 68 -1 -1 -1 -1 -1 -1 -1 101 101 101 
          -1 178 178 178 178 178 178 178 178 178 178 178 178 178 234 234 234 234 234 234 234 234 234 234 1 1 1 1 12 116 116 116 116 116 116 116 116 116 116 116 68 68 68 68 68 68 68 68 68 68 -1 -1 -1 -1 -1 -1 101 101 101 101 
          -1 178 178 178 178 178 178 178 178 178 178 178 178 178 234 234 234 234 234 234 234 234 234 1 1 1 1 1 1 116 116 116 116 116 116 116 116 116 116 -1 -1 -1 68 68 68 68 68 68 68 68 68 -1 -1 -1 37 101 101 101 101 101 
          -1 -1 178 178 178 178 178 178 178 178 178 178 178 178 234 234 234 234 234 234 234 234 234 1 1 1 1 1 1 116 116 116 116 116 116 116 116 116 225 225 225 225 225 225 68 68 68 68 68 68 68 -1 -1 37 101 101 101 101 101 101 
          -1 -1 178 178 178 178 178 178 178 178 178 178 178 178 234 234 234 234 234 234 234 234 234 1 1 1 1 1 1 116 116 116 116 116 116 116 116 225 225 225 225 225 225 225 225 21 21 68 68 68 68 -1 37 101 101 101 101 101 101 101 
          -1 -1 -1 178 178 178 178 178 178 178 178 178 178 234 234 234 234 234 234 234 234 234 234 1 1 1 1 1 1 1 116 116 116 116 116 225 225 225 225 225 225 225 225 225 225 21 21 21 21 21 -1 37 101 101 101 101 101 101 101 101 
          -1 -1 -1 -1 -1 -1 -1 -1 -1 -1 -1 178 234 234 234 234 234 234 234 234 234 234 234 1 1 1 1 1 1 209 209 209 209 209 209 225 225 225 225 225 225 225 225 225 225 21 21 21 21 21 37 37 101 101 101 101 101 101 101 101 
          -1 -1 -1 -1 -1 -1 -1 -1 -1 -1 -1 -1 234 234 234 234 234 234 234 234 234 234 234 249 1 249 249 249 209 209 209 209 209 209 209 209 225 225 225 225 225 225 225 225 21 21 21 21 21 21 37 37 101 101 101 101 101 101 101 101 
          -1 -1 -1 -1 -1 -1 -1 -1 -1 -1 -1 -1 -1 234 234 234 234 234 234 234 234 1 249 249 249 249 249 249 209 209 209 209 209 209 209 209 225 225 225 225 225 225 225 225 21 21 21 21 21 21 21 37 101 101 101 101 101 101 101 101 
          -1 -1 -1 -1 -1 -1 -1 -1 -1 -1 -1 -1 -1 234 234 234 234 234 234 1 1 249 249 249 249 249 249 249 209 209 209 209 209 209 209 209 225 225 225 225 225 225 225 21 21 21 21 21 21 21 21 37 101 101 101 101 101 101 101 101 
          -1 -1 74 74 74 -1 -1 -1 -1 -1 -1 -1 -1 -1 234 234 41 41 41 41 41 41 249 249 249 249 249 249 209 209 209 209 209 209 209 209 209 225 225 225 225 225 225 21 21 21 21 21 21 21 21 21 101 101 101 101 101 101 101 101 
          -1 74 74 74 74 74 74 74 -1 -1 -1 -1 -1 -1 41 41 41 41 41 41 41 41 249 249 249 249 249 209 209 209 209 209 209 209 209 209 209 225 225 225 225 225 21 21 21 21 21 21 21 21 21 21 101 101 101 101 101 101 101 101 
          74 74 74 74 74 74 74 74 74 74 74 -1 -1 -1 41 41 41 41 41 41 41 41 249 249 249 249 249 5 209 209 209 209 209 209 209 209 209 225 225 225 225 225 21 21 21 21 21 21 21 21 21 21 21 101 101 101 101 101 101 101 
          74 74 74 74 74 74 74 74 74 74 74 74 74 41 41 41 41 41 41 41 41 41 41 249 249 249 249 5 5 209 209 209 209 209 209 209 209 225 225 225 225 21 21 21 21 21 21 21 21 21 21 21 21 101 101 101 101 101 101 101 
          74 74 74 74 74 74 74 74 74 74 74 74 74 74 41 41 41 41 41 41 41 41 41 41 41 41 142 142 5 209 209 209 209 209 209 209 209 225 225 225 225 21 21 21 21 21 21 21 21 21 21 21 21 58 101 101 101 101 101 101 
          -1 178 178 178 178 178 178 178 178 178 178 178 178 178 61 61 61 234 234 234 234 234 234 234 234 1 116 116 116 116 116 116 116 116 116 116 116 116 116 68 68 68 68 68 68 68 68 68 68 68 68 -1 -1 -1 -1 37 37 37 101 101 
          -1 178 178 178 178 178 178 178 178 178 178 178 178 178 234 234 234 234 234 234 234 234 234 1 1 1 1 1 116 116 116 116 116 116 116 116 116 116 116 68 68 68 68 68 68 68 68 68 68 68 68 -1 -1 -1 37 37 37 101 101 101 
          -1 178 178 178 178 178 178 178 178 178 178 178 178 178 234 234 234 234 234 234 234 234 1 1 1 1 1 1 116 116 116 116 116 116 116 116 116 116 116 116 68 68 68 68 68 68 68 68 68 68 68 -1 -1 37 37 37 37 101 101 101 
          -1 -1 178 178 178 178 178 178 178 178 178 178 178 178 234 234 234 234 234 234 234 234 1 1 1 1 1 1 1 116 116 116 116 116 116 116 116 116 116 225 225 68 68 68 68 68 68 68 68 68 68 37 37 37 37 37 101 101 101 101 
          -1 -1 178 178 178 178 178 178 178 178 178 178 178 234 234 234 234 234 234 234 234 234 1 1 1 1 1 1 1 116 116 116 116 116 116 116 116 225 225 225 225 225 225 68 68 68 21 21 68 68 37 37 37 37 37 37 101 101 101 101 
          -1 -1 -1 178 178 178 178 178 178 178 178 178 178 234 234 234 234 234 234 234 234 234 1 1 1 1 1 1 1 1 116 116 116 116 116 225 225 225 225 225 225 225 225 225 21 21 21 21 21 21 37 37 37 37 37 101 101 101 101 101 
          -1 -1 -1 178 178 178 178 178 178 178 178 178 178 234 234 234 234 234 234 234 234 234 1 1 1 1 1 1 1 209 209 209 116 209 209 225 225 225 225 225 225 225 225 225 21 21 21 21 21 21 37 37 37 37 101 101 101 101 101 101 
          -1 -1 -1 -1 -1 -1 -1 -1 -1 -1 -1 -1 -1 234 234 234 234 234 234 234 1 1 1 1 1 249 249 1 209 209 209 209 209 209 209 209 225 225 225 225 225 225 225 225 21 21 21 21 21 21 37 37 37 37 101 101 101 101 101 101 
          -1 -1 -1 -1 -1 -1 -1 -1 -1 -1 -1 -1 -1 -1 234 234 234 234 234 1 1 1 249 249 249 249 249 249 209 209 209 209 209 209 209 209 225 225 225 225 225 225 225 225 21 21 21 21 21 21 21 37 37 37 101 101 101 101 101 101 
          -1 -1 74 -1 -1 -1 -1 -1 -1 -1 -1 -1 -1 -1 234 234 234 41 1 1 1 1 249 249 249 249 249 249 209 209 209 209 209 209 209 209 225 225 225 225 225 225 225 21 21 21 21 21 21 21 21 37 37 37 101 101 101 101 101 101 
          -1 74 74 74 74 74 74 -1 -1 -1 -1 -1 -1 -1 -1 41 41 41 41 41 1 1 249 249 249 249 249 249 209 209 209 209 209 209 209 209 225 225 225 225 225 225 225 21 21 21 21 21 21 21 21 21 37 101 101 101 101 101 101 101 
          74 74 74 74 74 74 74 74 74 74 -1 -1 -1 -1 41 41 41 41 41 41 41 41 249 249 249 249 249 249 209 209 209 209 209 209 209 209 209 225 225 225 225 225 21 21 21 21 21 21 21 21 21 21 37 101 101 101 101 101 101 101 
          74 74 74 74 74 74 74 74 74 74 74 74 -1 41 41 41 41 41 41 41 41 41 249 249 249 249 249 5 5 5 209 209 209 209 209 209 209 225 225 225 225 225 21 21 21 21 21 21 21 21 21 21 21 101 101 101 101 101 101 101 
          74 74 74 74 74 74 74 74 74 74 74 74 74 41 41 41 41 41 41 41 41 41 41 41 249 249 249 5 5 5 209 209 209 209 209 209 209 225 225 225 225 21 21 21 21 21 21 21 21 21 21 21 21 101 101 101 101 101 101 101 
          74 74 74 74 74 74 74 74 74 74 74 74 74 74 41 41 41 41 41 41 41 41 41 41 41 41 142 142 142 5 209 209 209 209 209 209 209 209 225 225 21 21 21 21 21 21 21 21 21 21 21 21 21 58 58 101 101 101 101 101 
          -1 178 178 178 178 178 178 178 178 178 178 178 178 178 61 61 61 61 61 61 61 61 61 61 61 1 1 116 116 116 116 116 116 116 116 116 116 116 116 68 68 68 68 68 68 68 68 68 68 68 68 -1 -1 -1 37 37 37 37 37 37 
          -1 178 178 178 178 178 178 178 178 178 178 178 178 178 234 61 61 61 61 1 1 1 1 1 1 1 1 1 116 116 116 116 116 116 116 116 116 116 116 68 68 68 68 68 68 68 68 68 68 68 68 -1 -1 37 37 37 37 37 37 101 
          -1 -1 178 178 178 178 178 178 178 178 178 178 178 178 234 234 61 61 1 1 1 1 1 1 1 1 1 1 116 116 116 116 116 116 116 116 116 116 116 68 68 68 68 68 68 68 68 68 68 68 68 37 37 37 37 37 37 37 101 101 
          -1 -1 178 178 178 178 178 178 178 178 178 178 178 178 234 234 234 61 1 1 1 1 1 1 1 1 1 1 1 116 116 116 116 116 116 116 116 116 116 68 68 68 68 68 68 68 68 68 68 68 37 37 37 37 37 37 37 101 101 101 
          -1 -1 178 178 178 178 178 178 178 178 178 178 178 178 234 234 234 234 234 1 1 1 1 1 1 1 1 1 1 116 116 116 116 116 116 116 116 116 225 225 225 68 68 68 68 68 21 21 68 68 37 37 37 37 37 37 37 101 101 101 
          -1 -1 -1 178 178 178 178 178 178 178 178 178 178 234 234 234 234 234 234 1 1 1 1 1 1 1 1 1 1 1 116 116 116 116 116 225 225 225 225 225 225 225 225 225 21 21 21 21 21 37 37 37 37 37 37 37 101 101 101 101 
          -1 -1 -1 178 178 178 178 178 178 178 178 178 178 234 234 234 234 234 1 1 1 1 1 1 1 1 1 1 1 209 209 209 209 209 209 225 225 225 225 225 225 225 225 225 21 21 21 21 21 37 37 37 37 37 37 101 101 101 101 101 
          -1 -1 -1 -1 178 178 178 178 178 178 178 178 -1 -1 234 234 234 234 1 1 1 1 1 1 1 249 1 1 209 209 209 209 209 209 209 209 225 225 225 225 225 225 225 225 21 21 21 21 21 21 37 37 37 37 37 101 101 101 101 101 
          -1 -1 -1 -1 -1 -1 -1 -1 -1 -1 -1 -1 -1 -1 234 234 234 234 1 1 1 1 1 249 249 249 249 249 209 209 209 209 209 209 209 209 225 225 225 225 225 225 225 21 21 21 21 21 21 21 37 37 37 37 37 101 101 101 101 101 
          -1 74 74 74 74 -1 -1 -1 -1 -1 -1 -1 -1 -1 -1 41 41 41 1 1 1 1 249 249 249 249 249 249 209 209 209 209 209 209 209 209 225 225 225 225 225 225 225 21 21 21 21 21 21 21 21 37 37 37 37 101 101 101 101 101 
          -1 74 74 74 74 74 74 74 -1 -1 -1 -1 -1 -1 -1 41 41 41 41 41 1 249 249 249 249 249 249 249 209 209 209 209 209 209 209 209 225 225 225 225 225 225 225 21 21 21 21 21 21 21 21 37 37 37 101 101 101 101 101 101 
          74 74 74 74 74 74 74 74 74 74 74 -1 -1 -1 41 41 41 41 41 41 41 41 249 249 249 249 249 249 5 209 209 209 209 209 209 209 209 225 225 225 225 225 21 21 21 21 21 21 21 21 21 21 37 37 101 101 101 101 101 101 
          74 74 74 74 74 74 74 74 74 74 74 74 74 41 41 41 41 41 41 41 41 41 41 249 249 249 249 5 5 5 5 209 209 209 209 209 209 225 225 225 225 21 21 21 21 21 21 21 21 21 21 21 21 101 101 101 101 101 101 101 
          74 74 74 74 74 74 74 74 74 74 74 74 74 41 41 41 41 41 41 41 41 41 41 41 41 41 41 5 5 5 5 209 209 209 209 209 209 225 225 225 225 21 21 21 21 21 21 21 21 21 21 21 21 58 101 101 101 101 101 101 
          74 74 74 74 74 74 74 74 74 74 74 74 74 41 41 41 41 41 41 41 41 41 41 41 41 41 41 142 142 5 5 209 209 209 209 209 209 209 225 225 21 21 21 21 21 21 21 21 21 21 21 21 21 58 58 101 101 101 101 101 
          -1 178 178 178 178 178 178 178 178 178 178 178 178 178 61 61 61 61 61 61 61 61 61 61 1 1 1 116 116 116 116 116 116 116 116 116 116 116 116 68 68 68 68 68 68 68 68 68 68 68 68 -1 37 37 37 37 37 37 37 37 
          -1 178 178 178 178 178 178 178 178 178 178 178 178 178 61 61 61 61 61 61 61 61 1 1 1 1 1 1 116 116 116 116 116 116 116 116 116 116 116 68 68 68 68 68 68 68 68 68 68 68 68 37 37 37 37 37 37 37 37 37 
          -1 -1 178 178 178 178 178 178 178 178 178 178 178 178 61 61 61 61 61 1 1 1 1 1 1 1 1 1 116 116 116 116 116 116 116 116 116 116 116 68 68 68 68 68 68 68 68 68 68 68 37 37 37 37 37 37 37 37 37 37 
          -1 -1 178 178 178 178 178 178 178 178 178 178 178 178 61 61 61 61 61 1 1 1 1 1 1 1 1 1 1 116 116 116 116 116 116 116 116 116 116 68 68 68 68 68 68 68 68 68 68 68 37 37 37 37 37 37 37 37 37 37 
          -1 -1 -1 178 178 178 178 178 178 178 178 178 178 61 61 61 61 61 61 1 1 1 1 1 1 1 1 1 1 116 116 116 116 116 116 116 116 116 225 68 68 68 68 68 68 68 68 68 68 37 37 37 37 37 37 37 37 37 37 101 
          -1 -1 -1 178 178 178 178 178 178 178 178 178 178 61 61 61 61 61 61 1 1 1 1 1 1 1 1 1 1 1 116 116 116 116 116 225 225 225 225 225 225 225 225 21 21 21 21 21 21 37 37 37 37 37 37 37 37 101 101 101 
          -1 -1 -1 -1 178 178 178 178 178 178 178 178 178 61 61 61 61 61 1 1 1 1 1 1 1 1 1 1 1 209 209 209 209 209 209 225 225 225 225 225 225 225 225 21 21 21 21 21 21 37 37 37 37 37 37 37 37 101 101 101 
          -1 -1 -1 -1 178 178 178 178 178 178 178 178 -1 61 61 61 61 1 1 1 1 1 1 1 1 1 1 1 1 209 209 209 209 209 209 209 225 225 225 225 225 225 225 21 21 21 21 21 21 21 37 37 37 37 37 37 101 101 101 101 
          -1 -1 -1 -1 -1 -1 178 178 178 178 178 -1 -1 -1 61 61 1 1 1 1 1 1 1 249 249 249 249 249 209 209 209 209 209 209 209 209 225 225 225 225 225 225 225 21 21 21 21 21 21 21 37 37 37 37 37 37 101 101 101 101 
          -1 74 74 74 74 74 -1 -1 -1 -1 -1 -1 -1 -1 -1 41 41 41 1 1 1 249 249 249 249 249 249 249 209 209 209 209 209 209 209 209 209 225 225 225 225 225 225 21 21 21 21 21 21 21 21 37 37 37 37 37 101 101 101 101 
          74 74 74 74 74 74 74 74 -1 -1 -1 -1 -1 -1 41 41 41 41 41 41 1 249 249 249 249 249 249 249 5 209 209 209 209 209 209 209 209 225 225 225 225 225 225 21 21 21 21 21 21 21 21 37 37 37 37 101 101 101 101 101 
          74 74 74 74 74 74 74 74 74 74 -1 -1 -1 -1 41 41 41 41 41 41 41 41 249 249 249 249 249 249 5 5 5 5 209 209 209 209 209 225 225 225 225 225 21 21 21 21 21 21 21 21 21 21 37 37 37 101 101 101 101 101 
          74 74 74 74 74 74 74 74 74 74 74 74 -1 41 41 41 41 41 41 41 41 41 41 41 249 249 249 249 5 5 5 5 209 209 209 209 209 225 225 225 225 21 21 21 21 21 21 21 21 21 21 21 37 37 101 101 101 101 101 101 
          74 74 74 74 74 74 74 74 74 74 74 74 74 41 41 41 41 41 41 41 41 41 41 41 41 41 41 5 5 5 5 5 209 209 209 209 209 225 225 225 21 21 21 21 21 21 21 21 21 21 21 21 21 58 101 101 101 101 101 101 
          74 74 74 74 74 74 74 74 74 74 74 74 74 41 41 41 41 41 41 41 41 41 41 41 41 41 41 142 5 5 5 5 5 5 5 5 209 225 225 225 21 21 21 21 21 21 21 21 21 21 21 21 21 58 58 101 101 101 101 101 
          -1 178 178 178 178 178 178 178 178 178 178 178 178 61 61 61 61 61 61 61 61 61 61 61 1 1 1 116 116 116 116 116 116 116 116 116 116 116 116 68 68 68 68 68 68 68 68 68 68 68 68 37 37 37 37 37 37 37 37 37 
          -1 178 178 178 178 178 178 178 178 178 178 178 178 178 61 61 61 61 61 61 61 61 1 1 1 1 1 1 116 116 116 116 116 116 116 116 116 116 116 68 68 68 68 68 68 68 68 68 68 68 37 37 37 37 37 37 37 37 37 37 
          -1 -1 178 178 178 178 178 178 178 178 178 178 178 61 61 61 61 61 61 61 1 1 1 1 1 1 1 1 116 116 116 116 116 116 116 116 116 116 116 68 68 68 68 68 68 68 68 68 68 68 37 37 37 37 37 37 37 37 37 37 
          -1 -1 178 178 178 178 178 178 178 178 178 178 178 61 61 61 61 61 61 61 1 1 1 1 1 1 1 1 1 116 116 116 116 116 116 116 116 116 68 68 68 68 68 68 68 68 68 68 68 37 37 37 37 37 37 37 37 37 37 37 
          -1 -1 -1 178 178 178 178 178 178 178 178 178 178 61 61 61 61 61 61 1 1 1 1 1 1 1 1 1 1 116 116 116 116 116 116 116 116 116 68 68 68 68 68 68 68 109 109 109 109 37 37 37 37 37 37 37 37 37 37 37 
          -1 -1 -1 178 178 178 178 178 178 178 178 178 178 61 61 61 61 61 1 1 1 1 1 1 1 1 1 1 1 1 116 116 116 116 116 225 225 225 225 225 225 68 109 109 109 109 109 109 109 37 37 37 37 37 37 37 37 37 37 37 
          -1 -1 -1 -1 178 178 178 178 178 178 178 178 61 61 61 61 61 1 1 1 1 1 1 1 1 1 1 1 1 209 209 209 209 209 209 225 225 225 225 225 225 225 109 109 109 109 109 109 109 37 37 37 37 37 37 37 37 37 37 37 
          -1 -1 -1 -1 178 178 178 178 178 178 178 178 -1 61 61 61 61 1 1 1 1 1 1 1 1 1 1 1 1 209 209 209 209 209 209 209 225 225 225 225 225 225 225 21 109 109 109 109 109 109 37 37 37 37 37 37 37 37 37 37 
          -1 74 74 -1 -1 178 178 178 178 178 178 -1 -1 -1 214 214 1 1 1 1 1 1 1 249 249 249 249 249 1 209 209 209 209 209 209 209 209 225 225 225 225 225 21 21 21 21 109 109 21 109 37 37 37 37 37 37 37 37 37 37 
          -1 74 74 74 74 -1 -1 -1 -1 -1 -1 -1 -1 -1 214 41 41 41 1 1 1 249 249 249 249 249 249 249 249 5 5 209 209 209 209 209 209 225 225 225 225 225 21 21 21 21 21 21 21 21 37 37 37 37 37 37 37 37 37 37 
          74 74 74 74 74 74 74 -1 -1 -1 -1 -1 -1 -1 41 41 41 41 41 41 41 249 249 249 249 249 249 249 5 5 5 5 5 209 209 209 209 209 225 225 225 225 21 21 21 21 21 21 21 21 21 37 37 37 37 37 37 37 37 37 
          74 74 74 74 74 74 74 74 74 -1 -1 -1 -1 -1 41 41 41 41 41 41 41 41 249 249 249 249 249 249 5 5 5 5 5 5 209 209 209 209 225 225 225 225 21 21 21 21 21 21 21 21 21 37 37 37 37 37 101 101 101 101 
          74 74 74 74 74 74 74 74 74 74 74 -1 -1 41 41 41 41 41 41 41 41 41 41 41 41 41 249 249 5 5 5 5 5 5 5 5 5 5 225 225 21 21 21 21 21 21 21 21 21 21 21 21 37 37 37 101 101 101 101 101 
          74 74 74 74 74 74 74 74 74 74 74 74 -1 41 41 41 41 41 41 41 41 41 41 41 41 41 41 5 5 5 5 5 5 5 5 5 5 5 225 225 21 21 21 21 21 21 21 21 21 21 21 21 21 37 37 101 101 101 101 101 
          74 74 74 74 74 74 74 74 74 74 74 74 74 41 41 41 41 41 41 41 41 41 41 41 41 41 41 5 5 5 5 5 5 5 5 5 5 5 5 270 21 21 21 21 21 21 21 21 21 21 21 21 21 58 58 58 101 101 101 -1 
          -1 178 178 178 178 178 178 178 178 178 178 178 178 61 61 61 61 61 61 61 61 61 61 61 1 1 1 116 116 116 116 116 116 116 116 116 116 116 116 68 68 68 68 68 68 68 68 68 68 68 37 37 37 37 37 37 37 37 37 37 
          -1 178 178 178 178 178 178 178 178 178 178 178 178 61 61 61 61 61 61 61 61 61 1 1 1 1 1 1 116 116 116 116 116 116 116 116 116 116 116 68 68 68 68 68 68 68 68 68 68 68 37 37 37 37 37 37 37 37 37 37 
          -1 -1 178 178 178 178 178 178 178 178 178 178 178 61 61 61 61 61 61 61 61 1 1 1 1 1 1 1 116 116 116 116 116 116 116 116 116 116 68 68 68 68 68 68 68 68 68 68 68 37 37 37 37 37 37 37 37 37 37 37 
          -1 -1 178 178 178 178 178 178 178 178 178 178 178 61 61 61 61 61 61 61 1 1 1 1 1 1 1 1 1 116 116 116 116 116 116 116 116 68 68 68 68 68 68 68 68 68 109 109 68 37 37 37 37 37 37 37 37 37 37 37 
          -1 -1 -1 178 178 178 178 178 178 178 178 178 178 61 61 61 61 61 61 1 1 1 1 1 1 1 1 1 1 116 116 116 116 116 116 116 116 68 68 68 68 68 68 109 109 109 109 109 109 37 37 37 37 37 37 37 37 37 37 37 
          -1 -1 -1 178 178 178 178 178 178 178 178 178 61 61 61 61 61 61 1 1 1 1 1 1 1 1 1 1 1 1 116 116 116 116 116 5 225 225 225 68 109 109 109 109 109 109 109 109 109 37 37 37 37 37 37 37 37 37 37 37 
          -1 -1 -1 -1 178 178 178 178 178 178 178 178 61 61 61 61 61 1 1 1 1 1 1 1 1 1 1 1 1 1 209 209 209 5 5 5 209 225 225 225 109 109 109 109 109 109 109 109 109 37 37 37 37 37 37 37 37 37 37 37 
          -1 -1 -1 -1 178 178 178 178 178 178 178 -1 61 214 214 61 1 1 1 1 1 1 1 1 1 1 1 1 1 1 209 209 209 5 5 209 209 225 225 225 225 109 109 109 109 109 109 109 109 109 37 37 37 37 37 37 37 37 37 37 
          -1 -1 -1 -1 -1 178 178 178 178 178 -1 -1 214 214 214 214 214 1 1 1 1 1 1 1 249 249 249 1 1 5 5 5 5 5 209 209 209 5 225 225 225 225 109 109 109 109 109 109 109 109 37 37 37 37 37 37 37 37 37 37 
          -1 -1 74 74 -1 -1 178 178 178 -1 -1 -1 -1 214 214 214 214 41 1 1 1 249 249 249 249 249 249 249 5 5 5 5 5 5 5 209 209 5 225 225 225 225 21 21 109 109 109 109 109 21 37 37 37 37 37 37 37 37 37 37 
          -1 74 74 74 74 74 -1 -1 -1 -1 -1 -1 -1 214 214 214 41 41 41 41 41 249 249 249 249 249 249 249 5 5 5 5 5 5 5 5 5 5 225 225 225 21 21 21 21 21 21 21 21 21 21 37 37 37 37 37 37 37 37 37 
          74 74 74 74 74 74 74 74 -1 -1 -1 -1 -1 214 41 41 41 41 41 41 41 41 249 249 249 249 249 249 5 5 5 5 5 5 5 5 5 5 5 225 21 21 21 21 21 21 21 21 21 21 21 37 37 37 37 37 37 37 37 37 
          74 74 74 74 74 74 74 74 74 -1 -1 -1 -1 41 41 41 41 41 41 41 41 41 41 41 41 41 249 249 5 5 5 5 5 5 5 5 5 5 5 21 21 21 21 21 21 21 21 21 21 21 21 21 37 37 37 37 37 37 37 37 
          74 74 74 74 74 74 74 74 74 74 74 -1 -1 41 41 41 41 41 41 41 41 41 41 41 41 41 41 5 5 5 5 5 5 5 5 5 5 5 5 21 21 21 21 21 21 21 21 21 21 21 21 21 37 37 37 37 37 37 -1 -1 
          74 74 74 74 74 74 74 74 74 74 74 74 41 41 41 41 41 41 41 41 41 41 41 41 41 41 41 5 5 5 5 5 5 5 5 5 5 5 5 270 21 21 21 21 21 21 21 21 21 21 21 21 21 58 58 58 -1 -1 -1 -1 
          8 8 178 178 178 178 178 178 178 178 178 178 178 61 61 61 61 61 61 61 61 61 61 1 1 1 1 116 116 116 116 116 116 116 116 116 116 116 116 68 68 68 68 68 68 68 68 68 68 68 37 37 37 37 37 37 37 37 37 37 
          -1 8 178 178 178 178 178 178 178 178 178 178 178 61 61 61 61 61 61 61 61 61 1 1 1 1 1 1 116 116 116 116 116 116 116 116 116 116 68 68 68 68 68 68 68 68 68 68 68 37 37 37 37 37 37 37 37 37 37 37 
          -1 -1 178 178 178 178 178 178 178 178 178 178 178 61 61 61 61 61 61 61 61 1 1 1 1 1 1 1 116 116 116 116 116 116 116 116 116 116 68 68 68 68 68 68 68 68 68 68 68 37 37 37 37 37 37 37 37 37 37 37 
          -1 -1 178 178 178 178 178 178 178 178 178 178 61 61 61 61 61 61 61 61 1 1 1 1 1 1 1 1 1 116 116 116 116 116 116 116 116 68 68 68 68 68 68 68 109 109 109 109 109 37 37 37 37 37 37 37 37 37 37 37 
          -1 -1 -1 178 178 178 178 178 178 178 178 178 61 61 61 61 61 61 61 1 1 1 1 1 1 1 1 1 1 116 116 116 116 116 116 116 116 68 68 68 68 109 109 109 109 109 109 109 109 37 37 37 37 37 37 37 37 37 37 37 
          -1 -1 -1 178 178 178 178 178 178 178 178 178 61 61 61 61 61 61 1 1 1 1 1 1 1 1 1 1 1 1 116 116 116 116 5 5 5 5 109 109 109 109 109 109 109 109 109 109 109 37 37 37 37 37 37 37 37 37 37 37 
          -1 -1 -1 -1 178 178 178 178 178 178 178 214 214 61 61 61 61 1 1 1 1 1 1 1 1 1 1 1 1 1 5 5 5 5 5 5 5 5 109 109 109 109 109 109 109 109 109 109 109 109 37 37 37 37 37 37 37 37 37 37 
          -1 -1 -1 -1 178 178 178 178 178 178 178 214 214 214 214 214 1 1 1 1 1 1 1 1 1 1 1 1 1 1 5 5 5 5 5 5 5 5 109 109 109 109 109 109 109 109 109 109 109 109 37 37 37 37 37 37 37 37 37 37 
          -1 -1 -1 -1 -1 178 178 178 178 178 -1 214 214 214 214 214 214 1 1 1 1 1 1 1 1 1 1 1 1 5 5 5 5 5 5 5 5 5 5 225 109 109 109 109 109 109 109 109 109 109 37 37 37 37 37 37 37 37 37 37 
          -1 -1 -1 -1 -1 -1 178 178 178 -1 -1 214 214 214 214 214 214 214 1 1 1 249 249 249 249 249 249 249 5 5 5 5 5 5 5 5 5 5 5 225 225 225 109 109 109 109 109 109 109 109 37 37 37 37 37 37 37 37 37 37 
          -1 -1 74 74 74 -1 -1 -1 -1 -1 -1 214 214 214 214 214 214 41 41 41 41 249 249 249 249 249 249 249 5 5 5 5 5 5 5 5 5 5 5 21 21 21 21 21 109 109 109 109 109 21 37 37 37 37 37 37 37 37 37 37 
          -1 74 74 74 74 74 -1 -1 -1 -1 -1 -1 214 214 214 214 41 41 41 41 41 41 41 41 249 249 249 249 5 5 5 5 5 5 5 5 5 5 5 21 21 21 21 21 21 21 21 21 21 21 21 37 37 37 37 37 37 37 37 37 
          -1 74 74 74 74 74 74 74 -1 -1 -1 -1 214 214 214 41 41 41 41 41 41 41 41 41 41 41 249 5 5 5 5 5 5 5 5 5 5 5 5 21 21 21 21 21 21 21 21 21 21 21 21 37 37 37 37 37 37 37 37 37 
          74 74 74 74 74 74 74 74 74 -1 -1 -1 214 41 41 41 41 41 41 41 41 41 41 41 41 41 41 5 5 5 5 5 5 5 5 5 5 5 57 21 21 21 21 21 21 21 21 21 21 21 21 21 37 37 37 37 37 37 37 37 
          74 74 74 74 74 74 74 74 74 74 74 -1 41 41 41 41 41 41 41 41 41 41 41 41 41 41 41 5 5 5 5 5 5 5 5 5 5 5 57 270 270 270 21 21 21 21 21 21 21 21 21 21 21 58 58 58 -1 -1 -1 -1 
          8 8 8 178 178 178 178 178 178 178 178 178 178 61 61 61 61 61 61 61 61 61 61 1 1 1 1 1 116 116 116 116 116 116 116 116 116 116 68 68 68 68 68 68 68 68 68 68 68 68 37 37 37 37 37 37 37 37 37 37 
          268 268 178 178 178 178 178 178 178 178 178 178 178 61 61 61 61 61 61 61 61 61 1 1 1 1 1 1 116 116 116 116 116 116 116 116 116 116 68 68 68 68 68 68 68 68 68 68 68 37 37 37 37 37 37 37 37 37 37 37 
          268 268 178 178 178 178 178 178 178 178 178 178 61 61 61 61 61 61 61 61 61 61 1 1 1 1 1 1 116 116 116 116 116 116 116 116 116 116 68 68 68 68 68 68 68 68 109 109 109 37 37 37 37 37 37 37 37 37 37 37 
          -1 -1 268 178 178 178 178 178 178 178 178 178 61 61 61 61 61 61 61 61 61 1 1 1 1 1 1 1 1 116 116 116 116 116 116 116 116 116 68 68 68 68 109 109 109 109 109 109 109 37 37 37 37 37 37 37 37 37 37 37 
          -1 -1 -1 178 178 178 178 178 178 178 178 178 61 61 61 61 61 61 61 1 1 1 1 1 1 1 1 1 1 116 116 116 116 116 116 116 5 68 68 109 109 109 109 109 109 109 109 109 109 37 37 37 37 37 37 37 37 37 37 37 
          -1 -1 -1 178 178 178 178 178 178 178 178 61 61 61 61 61 61 61 1 1 1 1 1 1 1 1 1 1 1 1 116 116 116 5 5 5 5 109 109 109 109 109 109 109 109 109 109 109 109 37 37 37 37 37 37 37 37 37 37 37 
          -1 -1 -1 -1 178 178 178 178 178 178 178 214 214 214 214 61 61 1 1 1 1 1 1 1 1 1 1 1 1 1 5 5 5 5 5 5 5 109 109 109 109 109 109 109 109 109 109 109 109 109 37 37 37 37 37 37 37 37 37 37 
          -1 -1 -1 -1 178 178 178 178 178 178 214 214 214 214 214 214 214 1 1 1 1 1 1 1 1 1 1 1 1 5 5 5 5 5 5 5 5 5 109 109 109 109 109 109 109 109 109 109 109 109 37 37 37 37 37 37 37 37 37 37 
          -1 -1 -1 -1 -1 178 178 178 178 178 214 214 214 214 214 214 214 214 1 1 1 1 1 1 1 1 1 1 1 5 5 5 5 5 5 5 5 5 109 109 109 109 109 109 109 109 109 109 109 109 37 37 37 37 37 37 37 37 37 37 
          -1 -1 -1 -1 -1 -1 178 178 178 -1 214 214 214 214 214 214 214 214 41 41 249 249 249 249 1 1 1 1 5 5 5 5 5 5 5 5 5 5 57 109 109 109 109 109 109 109 109 109 109 109 37 37 37 37 37 37 37 37 37 37 
          -1 -1 -1 -1 -1 -1 -1 -1 -1 94 214 214 214 214 214 214 214 214 41 41 41 249 249 249 249 249 249 5 5 5 5 5 5 5 5 5 5 57 57 57 21 109 109 109 109 109 109 109 109 109 37 37 37 37 37 37 37 37 37 37 
          -1 -1 -1 74 74 -1 -1 -1 -1 94 94 214 214 214 214 214 214 41 41 41 41 41 41 249 249 249 249 5 5 5 5 5 5 5 5 5 5 57 57 57 21 21 21 21 109 109 109 109 21 21 21 37 37 37 37 37 37 37 37 37 
          -1 -1 74 74 74 74 222 222 -1 94 94 214 214 214 214 214 41 41 41 41 41 41 41 41 41 41 249 5 5 5 5 5 5 5 5 5 57 57 57 57 21 21 21 21 21 21 21 21 21 21 21 37 37 37 37 37 37 37 37 37 
          -1 -1 74 74 74 74 222 222 222 94 94 214 214 214 214 41 41 41 41 41 41 41 41 41 41 41 41 5 5 5 5 5 5 5 5 5 57 57 57 57 21 21 21 21 21 21 21 21 21 21 21 21 37 37 37 37 37 37 37 37 
          -1 74 74 74 74 74 74 222 222 94 94 214 214 41 41 41 41 41 41 41 41 41 41 41 41 41 41 5 5 5 5 5 5 5 5 57 57 57 57 166 270 270 270 270 270 21 21 21 21 21 21 21 37 58 58 37 37 -1 -1 -1 
          268 268 268 178 178 178 178 178 178 178 178 178 178 61 61 61 61 61 61 61 61 61 61 1 1 1 1 1 116 116 116 116 116 116 116 116 116 116 68 68 68 68 68 68 68 68 68 68 68 48 48 37 37 37 37 37 37 37 37 37 
          268 268 268 178 178 178 178 178 178 178 178 178 178 61 61 61 61 61 61 61 61 61 1 1 1 1 1 1 116 116 116 116 116 116 116 116 116 116 68 68 68 68 68 68 68 68 68 109 109 109 37 37 37 37 37 37 37 37 37 37 
          268 268 268 178 178 178 178 178 178 178 178 178 61 61 61 61 61 61 61 61 61 61 1 1 1 1 1 1 116 116 116 116 116 116 116 116 116 116 68 68 68 68 68 109 109 109 109 109 109 37 37 37 37 37 37 37 37 37 37 37 
          -1 268 268 178 178 178 178 178 178 178 178 178 61 61 61 61 61 61 61 61 61 1 1 1 1 1 1 1 1 116 116 116 116 116 116 116 116 116 68 68 68 109 109 109 109 109 109 109 109 37 37 37 37 37 37 37 37 37 37 37 
          -1 -1 -1 178 178 178 178 178 178 178 178 61 61 61 61 61 61 61 61 61 1 1 1 1 1 1 1 1 1 116 116 116 116 116 116 116 5 109 109 109 109 109 109 109 109 109 109 109 109 37 37 37 37 37 37 37 37 37 37 37 
          -1 -1 -1 178 178 178 178 178 178 178 178 214 61 61 61 61 61 1 1 1 1 1 1 1 1 1 1 1 1 1 116 116 5 5 5 5 5 109 109 109 109 109 109 109 109 109 109 109 109 109 37 37 37 37 37 37 37 37 37 37 
          -1 -1 -1 -1 178 178 178 178 178 178 214 214 214 214 214 214 214 1 1 1 1 1 1 1 1 1 1 1 1 5 5 5 5 5 5 5 5 109 109 109 109 109 109 109 109 109 109 109 109 109 37 37 37 37 37 37 37 37 37 37 