<?xml version="1.0"?>
<VTKFile type="RectilinearGrid" version="0.1" byte_order="LittleEndian">
  <RectilinearGrid WholeExtent="0 60 0 15 0 60">
    <Piece Extent="0 60 0 15 0 60">
      <CellData Scalars="grain_id">
        <DataArray type="Int64" Name="grain_id" format="ascii">
          64 64 -1 -1 -1 176 -1 -1 -1 0 0 0 0 0 0 0 0 0 0 0 212 212 212 212 212 232 232 232 232 232 232 232 232 232 232 232 232 232 232 232 -1 -1 -1 -1 -1 -1 -1 -1 -1 -1 -1 -1 -1 -1 -1 -1 -1 -1 -1 -1 
          64 64 64 -1 176 176 176 176 0 0 0 0 0 0 0 0 0 0 0 0 212 212 212 212 212 232 232 232 232 232 232 232 232 232 232 232 232 232 232 -1 -1 100 100 100 100 100 -1 -1 -1 -1 -1 -1 -1 -1 -1 -1 -1 -1 -1 -1 
          64 64 64 64 176 176 176 176 176 0 0 0 0 0 0 0 0 212 212 212 212 212 212 212 212 232 232 232 232 232 232 232 232 232 232 232 232 72 72 72 100 100 100 100 100 100 100 100 -1 -1 -1 -1 -1 -1 -1 -1 -1 -1 -1 -1 
          64 64 64 176 176 176 176 176 176 0 0 0 0 0 0 0 0 212 212 212 212 212 212 212 212 232 232 232 232 232 232 232 232 232 232 72 72 72 72 72 100 100 100 100 100 100 100 100 100 100 -1 -1 -1 -1 -1 -1 -1 -1 -1 -1 
          64 64 64 176 176 176 176 176 176 176 0 0 0 0 0 0 0 212 212 212 212 212 212 212 212 212 12 12 232 232 232 232 232 232 72 72 72 72 72 72 100 100 100 100 100 100 100 100 100 100 100 100 -1 -1 -1 -1 -1 -1 -1 -1 
          64 64 176 176 176 176 176 176 176 176 176 0 0 0 0 0 212 212 212 212 212 212 212 212 212 12 12 12 12 12 12 232 72 72 72 72 72 72 72 72 100 100 100 100 100 100 100 100 100 100 100 100 100 -1 -1 -1 -1 -1 -1 -1 
          64 176 176 176 176 176 176 176 176 176 176 0 0 0 0 212 212 212 212 212 212 212 212 212 212 12 12 12 12 12 12 12 72 72 72 72 72 72 72 72 100 100 100 100 100 100 100 100 100 100 100 100 100 100 -1 -1 -1 -1 -1 -1 
          64 176 176 176 176 176 176 176 176 176 176 176 176 0 212 212 212 212 212 212 212 212 212 212 12 12 12 12 12 12 12 12 12 72 72 72 72 72 72 72 100 100 100 100 100 100 100 100 100 100 100 100 100 100 -1 -1 -1 -1 -1 -1 
          -1 176 176 176 176 176 176 176 176 176 176 176 176 212 212 212 212 212 212 212 212 212 212 212 12 12 12 12 12 12 12 12 12 12 72 72 72 72 72 72 100 100 100 100 100 100 100 100 100 100 100 100 100 100 -1 -1 -1 -1 -1 -1 
          -1 -1 176 176 176 176 176 176 176 176 176 176 176 212 212 212 212 212 212 212 212 212 212 212 12 12 12 12 12 12 12 12 12 72 72 72 72 72 72 72 72 100 100 100 100 100 100 100 100 100 100 100 100 100 -1 -1 -1 -1 -1 -1 
          -1 -1 176 176 176 176 176 176 176 176 176 176 176 61 212 212 212 212 212 212 212 212 212 12 12 12 12 12 12 12 12 12 12 12 72 72 72 72 72 72 100 100 100 100 100 100 100 100 100 100 100 100 100 -1 -1 -1 -1 -1 -1 -1 
          -1 -1 -1 176 176 176 176 176 176 176 176 176 176 61 61 61 212 212 212 212 -1 -1 -1 12 12 12 12 12 12 12 12 12 12 12 72 72 72 72 72 72 100 100 100 100 100 100 100 100 100 100 100 100 -1 -1 -1 -1 -1 -1 -1 -1 
          -1 -1 -1 178 178 178 176 176 176 176 176 176 178 178 61 61 61 61 -1 234 234 234 234 234 12 12 12 12 12 12 12 12 12 12 72 72 72 72 72 100 100 100 100 100 100 100 100 100 100 100 100 -1 -1 -1 -1 -1 -1 -1 -1 -1 
          -1 -1 178 178 178 178 178 178 176 176 178 178 178 178 61 61 61 234 234 234 234 234 234 234 12 12 12 12 12 12 12 12 12 116 116 116 72 72 72 100 100 100 100 100 100 100 100 100 100 100 -1 -1 -1 -1 -1 -1 -1 -1 -1 -1 
          -1 178 178 178 178 178 178 178 178 178 178 178 178 178 178 234 234 234 234 234 234 234 234 234 234 12 12 12 12 12 12 12 12 116 116 116 116 116 116 100 100 100 100 100 100 100 100 100 -1 -1 -1 -1 -1 -1 -1 -1 -1 -1 101 101 
          64 64 64 64 -1 176 176 -1 76 76 0 0 0 0 0 0 0 0 0 0 212 212 212 212 212 212 232 232 232 232 232 232 232 232 232 232 232 232 232 232 -1 -1 -1 100 -1 -1 -1 -1 -1 -1 -1 -1 -1 -1 -1 -1 -1 -1 -1 -1 
          64 64 64 64 176 176 176 176 76 76 0 0 0 0 0 0 0 0 0 0 212 212 212 212 212 232 232 232 232 232 232 232 232 232 232 232 232 232 232 232 -1 100 100 100 100 100 100 -1 -1 -1 -1 -1 -1 -1 -1 -1 -1 -1 -1 -1 
          64 64 64 64 176 176 176 176 176 0 0 0 0 0 0 0 0 0 0 212 212 212 212 212 212 232 232 232 232 232 232 232 232 232 232 232 232 232 72 72 100 100 100 100 100 100 100 100 100 -1 -1 -1 -1 -1 -1 -1 -1 -1 -1 -1 
          64 64 64 64 176 176 176 176 176 176 0 0 0 0 0 0 0 0 212 212 212 212 212 212 212 232 232 232 232 232 232 232 232 232 232 72 72 72 72 72 100 100 100 100 100 100 100 100 100 100 100 -1 -1 -1 -1 -1 -1 -1 -1 -1 
          64 64 64 176 176 176 176 176 176 176 176 0 0 0 0 0 0 0 212 212 212 212 212 212 212 212 12 12 12 232 232 232 232 72 72 72 72 72 72 72 100 100 100 100 100 100 100 100 100 100 100 100 -1 -1 -1 -1 -1 -1 -1 -1 
          64 64 176 176 176 176 176 176 176 176 176 0 0 0 0 0 0 212 212 212 212 212 212 212 212 12 12 12 12 12 12 12 72 72 72 72 72 72 72 72 100 100 100 100 100 100 100 100 100 100 100 100 100 100 -1 -1 -1 -1 -1 -1 
          64 176 176 176 176 176 176 176 176 176 176 176 0 0 0 212 212 212 212 212 212 212 212 212 212 12 12 12 12 12 12 12 72 72 72 72 72 72 72 72 100 100 100 100 100 100 100 100 100 100 100 100 100 100 -1 -1 -1 -1 -1 -1 
          64 176 176 176 176 176 176 176 176 176 176 176 176 0 212 212 212 212 212 212 212 212 212 212 12 12 12 12 12 12 12 12 12 72 72 72 72 72 72 72 100 100 100 100 100 100 100 100 100 100 100 100 100 100 -1 -1 -1 -1 -1 -1 
          64 176 176 176 176 176 176 176 176 176 176 176 176 176 212 212 212 212 212 212 212 212 212 212 12 12 12 12 12 12 12 12 12 72 72 72 72 72 72 72 100 100 100 100 100 100 100 100 100 100 100 100 100 100 -1 -1 -1 -1 -1 -1 
          -1 176 176 176 176 176 176 176 176 176 176 176 176 176 212 212 212 212 212 212 212 212 212 12 12 12 12 12 12 12 12 12 12 12 72 72 72 72 72 72 100 100 100 100 100 100 100 100 100 100 100 100 100 100 -1 -1 -1 -1 -1 -1 
          -1 176 176 176 176 176 176 176 176 176 176 176 176 61 61 212 212 212 212 212 212 212 12 12 12 12 12 12 12 12 12 12 12 12 72 72 72 72 72 72 100 100 100 100 100 100 100 100 100 100 100 100 100 -1 -1 -1 -1 -1 -1 -1 
          -1 -1 176 176 176 176 176 176 176 176 176 176 178 61 61 61 61 61 61 61 61 61 12 12 12 12 12 12 12 12 12 12 12 12 72 72 72 72 72 72 100 100 100 100 100 100 100 100 100 100 100 100 -1 -1 -1 -1 -1 -1 -1 -1 
          -1 -1 176 176 178 178 178 176 176 176 178 178 178 61 61 61 61 61 61 61 61 234 234 12 12 12 12 12 12 12 12 12 12 116 116 72 72 72 72 72 100 100 100 100 100 100 100 100 100 100 100 -1 -1 -1 -1 -1 -1 -1 -1 -1 
          -1 -1 178 178 178 178 178 178 178 178 178 178 178 178 61 61 61 61 61 234 234 234 234 234 12 12 12 12 12 12 12 12 12 116 116 116 116 116 116 68 100 100 100 100 100 100 100 100 100 100 -1 -1 -1 -1 -1 -1 -1 -1 -1 -1 
          -1 178 178 178 178 178 178 178 178 178 178 178 178 178 61 61 61 234 234 234 234 234 234 234 234 12 12 12 12 12 12 12 116 116 116 116 116 116 116 68 68 68 68 100 100 68 68 68 68 -1 -1 -1 -1 -1 -1 -1 -1 -1 101 101 
          64 64 64 64 64 176 176 76 76 76 76 0 0 0 0 0 0 0 0 0 0 212 212 212 212 212 232 232 232 232 232 232 232 232 232 232 232 232 232 232 -1 -1 -1 100 -1 -1 -1 -1 -1 -1 -1 -1 -1 -1 -1 -1 -1 -1 -1 -1 
          64 64 64 64 176 176 176 176 76 76 76 0 0 0 0 0 0 0 0 0 212 212 212 212 212 212 232 232 232 232 232 232 232 232 232 232 232 232 232 232 -1 100 100 100 100 100 100 -1 -1 -1 -1 -1 -1 -1 -1 -1 -1 -1 -1 -1 
          64 64 64 64 176 176 176 176 76 76 76 0 0 0 0 0 0 0 0 0 212 212 212 212 212 232 232 232 232 232 232 232 232 232 232 232 232 232 232 232 100 100 100 100 100 100 100 100 100 -1 -1 -1 -1 -1 -1 -1 -1 -1 -1 -1 
          64 64 64 64 176 176 176 176 176 176 0 0 0 0 0 0 0 0 0 212 212 212 212 212 212 232 232 232 232 232 232 232 232 232 232 72 72 72 72 72 100 100 100 100 100 100 100 100 100 100 100 -1 -1 -1 -1 -1 -1 -1 -1 -1 
          64 64 64 64 176 176 176 176 176 176 176 0 0 0 0 0 0 0 212 212 212 212 212 212 212 212 12 12 12 12 232 232 232 72 72 72 72 72 72 72 100 100 100 100 100 100 100 100 100 100 100 100 100 -1 -1 -1 -1 -1 -1 -1 
          64 64 64 176 176 176 176 176 176 176 176 176 0 0 0 0 0 212 212 212 212 212 212 212 212 12 12 12 12 12 12 12 12 72 72 72 72 72 72 72 100 100 100 100 100 100 100 100 100 100 100 100 100 -1 -1 -1 -1 -1 -1 -1 
          64 64 176 176 176 176 176 176 176 176 176 176 0 0 0 0 212 212 212 212 212 212 212 212 212 12 12 12 12 12 12 12 12 72 72 72 72 72 72 72 100 100 100 100 100 100 100 100 100 100 100 100 100 -1 -1 -1 -1 -1 -1 -1 
          64 176 176 176 176 176 176 176 176 176 176 176 176 0 0 212 212 212 212 212 212 212 212 212 12 12 12 12 12 12 12 12 12 72 72 72 72 72 72 72 100 100 100 100 100 100 100 100 100 100 100 100 100 -1 -1 -1 -1 -1 -1 -1 
          64 176 176 176 176 176 176 176 176 176 176 176 176 176 212 212 212 212 212 212 212 212 212 212 12 12 12 12 12 12 12 12 12 72 72 72 72 72 72 72 100 100 100 100 100 100 100 100 100 100 100 100 100 100 -1 -1 -1 -1 -1 -1 
          176 176 176 176 176 176 176 176 176 176 176 176 176 176 212 212 212 212 212 212 212 212 212 12 12 12 12 12 12 12 12 12 12 72 72 72 72 72 72 72 100 100 100 100 100 100 100 100 100 100 100 100 100 100 -1 -1 -1 -1 -1 -1 
          176 176 176 176 176 176 176 176 176 176 176 176 176 61 212 212 212 212 212 212 212 212 12 12 12 12 12 12 12 12 12 12 12 12 72 72 72 72 72 72 100 100 100 100 100 100 100 100 100 100 100 100 100 -1 -1 -1 -1 -1 -1 -1 
          -1 176 176 176 176 176 176 176 176 176 178 178 178 61 61 61 61 61 61 61 61 61 12 12 12 12 12 12 12 12 12 12 12 12 72 72 72 72 72 72 100 100 100 100 100 100 100 100 100 100 100 100 -1 -1 -1 -1 -1 -1 -1 -1 
          -1 176 176 176 176 178 178 178 178 178 178 178 178 61 61 61 61 61 61 61 61 61 61 12 12 12 12 12 12 12 12 12 12 116 116 116 72 72 72 68 68 68 100 100 100 100 100 100 100 100 100 -1 -1 -1 -1 -1 -1 -1 -1 -1 
          -1 178 178 178 178 178 178 178 178 178 178 178 178 61 61 61 61 61 61 61 61 234 234 234 12 12 12 12 12 12 12 12 116 116 116 116 116 116 116 68 68 68 68 68 68 100 100 100 100 68 -1 -1 -1 -1 -1 -1 -1 -1 -1 -1 
          -1 178 178 178 178 178 178 178 178 178 178 178 178 178 61 61 61 61 61 234 234 234 234 234 234 12 12 12 12 12 12 116 116 116 116 116 116 116 116 68 68 68 68 68 68 68 68 68 68 68 68 -1 -1 -1 -1 -1 -1 37 -1 -1 
          64 64 64 64 64 176 176 76 76 76 76 76 0 0 0 0 0 0 0 0 0 212 212 212 212 212 232 232 232 232 232 232 232 232 232 232 232 232 232 232 -1 -1 -1 100 100 -1 -1 -1 -1 -1 -1 -1 -1 -1 -1 -1 -1 -1 -1 -1 
          64 64 64 64 64 176 176 76 76 76 76 76 0 0 0 0 0 0 0 0 212 212 212 212 212 212 232 232 232 232 232 232 232 232 232 232 232 232 232 232 -1 -1 100 100 100 100 100 -1 -1 -1 -1 -1 -1 -1 -1 -1 -1 -1 -1 -1 
          64 64 64 64 64 176 176 176 76 76 76 76 0 0 0 0 0 0 0 0 212 212 212 212 212 212 232 232 232 232 232 232 232 232 232 232 232 232 232 232 100 100 100 100 100 100 100 100 100 -1 -1 -1 -1 -1 -1 -1 -1 -1 -1 -1 
          64 64 64 64 64 176 176 176 76 76 76 76 0 0 0 0 0 0 0 212 212 212 212 212 212 232 232 232 232 232 232 232 232 232 232 72 72 72 72 72 100 100 100 100 100 100 100 100 100 100 100 -1 -1 -1 -1 -1 -1 -1 -1 -1 
          64 64 64 64 176 176 176 176 176 176 76 76 0 0 0 0 0 0 0 212 212 212 212 212 212 212 12 12 12 12 12 12 12 72 72 72 72 72 72 72 100 100 100 100 100 100 100 100 100 100 100 100 -1 -1 -1 -1 -1 -1 -1 -1 
          64 64 64 64 176 176 176 176 176 176 176 176 0 0 0 0 0 0 212 212 212 212 212 212 212 12 12 12 12 12 12 12 12 72 72 72 72 72 72 72 100 100 100 100 100 100 100 100 100 100 100 100 -1 -1 -1 -1 -1 -1 -1 -1 
          64 64 64 176 176 176 176 176 176 176 176 176 176 0 0 0 0 212 212 212 212 212 212 212 212 12 12 12 12 12 12 12 12 72 72 72 72 72 72 72 100 100 100 100 100 100 100 100 100 100 100 100 100 -1 -1 -1 -1 -1 -1 -1 
          64 64 176 176 176 176 176 176 176 176 176 176 176 0 0 0 212 212 212 212 212 212 212 212 12 12 12 12 12 12 12 12 12 72 72 72 72 72 72 72 100 100 100 100 100 100 100 100 100 100 100 100 100 -1 -1 -1 -1 -1 -1 -1 
          64 176 176 176 176 176 176 176 176 176 176 176 176 76 0 212 212 212 212 212 212 212 212 12 12 12 12 12 12 12 12 12 12 72 72 72 72 72 72 72 100 100 100 100 100 100 100 100 100 100 100 100 100 -1 -1 -1 -1 -1 -1 -1 
          64 176 176 176 176 176 176 176 176 176 176 176 176 76 212 212 212 212 212 212 212 212 12 12 12 12 12 12 12 12 12 12 12 72 72 72 72 72 72 72 100 100 100 100 100 100 100 100 100 100 100 100 100 -1 -1 -1 -1 -1 -1 -1 
          176 176 176 176 176 176 176 176 176 176 176 176 176 76 212 212 212 212 212 212 212 12 12 12 12 12 12 12 12 12 12 12 12 72 72 72 72 72 72 72 100 100 100 100 100 100 100 100 100 100 100 100 100 -1 -1 -1 -1 -1 -1 -1 
          176 176 176 176 176 176 176 176 178 178 178 178 178 61 61 61 61 61 61 61 61 61 12 12 12 12 12 12 12 12 12 12 12 12 72 72 72 72 72 72 68 68 68 100 100 100 100 100 100 100 100 100 -1 -1 -1 -1 -1 -1 -1 -1 
          -1 176 176 176 178 178 178 178 178 178 178 178 178 61 61 61 61 61 61 61 61 61 61 61 12 12 12 12 12 12 12 12 116 116 116 116 72 72 72 68 68 68 68 68 68 100 100 100 100 100 100 -1 -1 -1 -1 -1 -1 -1 -1 -1 
          -1 178 178 178 178 178 178 178 178 178 178 178 178 61 61 61 61 61 61 61 61 61 61 61 61 12 12 12 12 12 116 116 116 116 116 116 116 116 116 68 68 68 68 68 68 68 68 68 68 68 68 -1 -1 -1 -1 -1 -1 37 37 -1 
          -1 178 178 178 178 178 178 178 178 178 178 178 178 178 61 61 61 61 61 61 61 61 61 61 61 61 116 116 116 116 116 116 116 116 116 116 116 116 116 68 68 68 68 68 68 68 68 68 68 68 68 -1 -1 -1 -1 37 37 37 37 37 
          64 64 64 64 64 176 176 76 76 76 76 76 76 0 0 0 0 0 0 0 0 0 212 212 212 212 232 232 232 232 232 232 232 232 232 232 232 232 232 232 -1 -1 -1 100 100 100 -1 -1 -1 -1 -1 -1 -1 -1 -1 -1 -1 -1 -1 -1 
          64 64 64 64 64 176 176 76 76 76 76 76 76 0 0 0 0 0 0 0 0 212 212 212 212 212 232 232 232 232 232 232 232 232 232 232 232 232 232 232 -1 -1 100 100 100 100 100 100 -1 -1 -1 -1 -1 -1 -1 -1 -1 -1 -1 -1 
          64 64 64 64 64 176 176 76 76 76 76 76 76 0 0 0 0 0 0 0 0 212 212 212 212 212 232 232 232 232 232 232 232 232 232 232 232 232 232 232 232 100 100 100 100 100 100 100 100 100 -1 -1 -1 -1 -1 -1 -1 -1 -1 -1 
          64 64 64 64 64 176 176 176 76 76 76 76 76 0 0 0 0 0 0 0 212 212 212 212 212 212 232 232 232 232 232 232 232 232 72 72 72 72 72 72 100 100 100 100 100 100 100 100 100 100 100 -1 -1 -1 -1 -1 -1 -1 -1 -1 
          64 64 64 64 64 176 176 176 176 76 76 76 76 0 0 0 0 0 0 212 212 212 212 212 212 212 12 12 12 12 12 12 12 72 72 72 72 72 72 72 100 100 100 100 100 100 100 100 100 100 100 100 -1 -1 -1 -1 -1 -1 -1 -1 
          64 64 64 64 176 176 176 176 176 176 176 76 76 0 0 0 0 0 0 212 212 212 212 212 212 12 12 12 12 12 12 12 12 72 72 72 72 72 72 72 100 100 100 100 100 100 100 100 100 100 100 100 -1 -1 -1 -1 -1 -1 -1 -1 
          64 64 64 64 176 176 176 176 176 176 176 176 76 76 0 0 0 0 212 212 212 212 212 212 212 12 12 12 12 12 12 12 12 72 72 72 72 72 72 72 100 100 100 100 100 100 100 100 100 100 100 100 -1 -1 -1 -1 -1 -1 -1 -1 
          64 64 64 176 176 176 176 176 176 176 176 176 76 76 0 0 0 0 212 212 212 212 212 212 12 12 12 12 12 12 12 12 12 72 72 72 72 72 72 72 100 100 100 100 100 100 100 100 100 100 100 100 -1 -1 -1 -1 -1 -1 -1 -1 
          64 64 176 176 176 176 176 176 176 176 176 176 76 76 76 76 0 212 212 212 212 212 212 12 12 12 12 12 12 12 12 12 12 72 72 72 72 72 72 72 100 100 100 100 100 100 100 100 100 100 100 100 -1 -1 -1 -1 -1 -1 -1 -1 
          64 176 176 176 176 176 176 176 176 176 176 176 176 76 76 76 212 212 212 212 212 212 12 12 12 12 12 12 12 12 12 12 12 72 72 72 72 72 72 100 100 100 100 100 100 100 100 100 100 100 100 100 -1 -1 -1 -1 -1 -1 -1 -1 
          64 176 176 176 176 176 176 176 176 176 176 176 176 76 76 76 61 61 0 61 61 12 12 12 12 12 12 12 12 12 12 12 12 12 72 72 72 72 72 72 68 68 100 100 100 100 100 100 100 100 100 100 -1 -1 -1 -1 -1 -1 -1 -1 
          64 176 176 176 176 176 176 178 178 178 178 178 178 61 61 61 61 61 61 61 61 61 61 12 12 12 12 12 12 12 12 12 12 116 72 72 72 72 72 72 68 68 68 68 100 100 100 100 100 100 100 100 -1 -1 -1 -1 -1 -1 -1 -1 
          64 176 176 178 178 178 178 178 178 178 178 178 178 61 61 61 61 61 61 61 61 61 61 61 61 12 12 12 12 12 12 12 116 116 116 116 72 72 72 68 68 68 68 68 68 68 68 68 68 68 68 -1 -1 -1 -1 -1 -1 37 37 37 
          -1 178 178 178 178 178 178 178 178 178 178 178 178 61 61 61 61 61 61 61 61 61 61 61 61 61 116 116 116 116 116 116 116 116 116 116 116 116 116 68 68 68 68 68 68 68 68 68 68 68 68 -1 -1 -1 -1 37 37 37 37 37 
          -1 178 178 178 178 178 178 178 178 178 178 178 178 61 61 61 61 61 61 61 61 61 61 61 61 61 116 116 116 116 116 116 116 116 116 116 116 116 116 68 68 68 68 68 68 68 68 68 68 68 68 -1 -1 -1 37 37 37 37 37 37 
          64 64 64 64 64 64 76 76 76 76 76 76 76 0 0 0 0 0 0 0 0 0 0 212 212 212 232 232 232 232 232 232 232 232 232 232 232 232 -1 -1 -1 -1 -1 100 100 100 -1 -1 -1 -1 -1 -1 -1 -1 -1 -1 -1 -1 -1 -1 
          64 64 64 64 64 64 176 76 76 76 76 76 76 76 0 0 0 0 0 0 0 0 0 212 212 212 232 232 232 232 232 232 232 232 232 232 232 232 232 -1 -1 -1 100 100 100 100 100 100 188 188 -1 -1 -1 -1 -1 -1 -1 -1 -1 -1 
          64 64 64 64 64 176 176 76 76 76 76 76 76 76 0 0 0 0 0 0 0 0 212 212 212 212 232 232 232 232 232 232 232 232 72 72 72 72 232 232 -1 100 100 100 100 100 100 100 188 188 -1 -1 -1 -1 -1 -1 -1 -1 -1 -1 
          64 64 64 64 64 176 176 176 76 76 76 76 76 76 0 0 0 0 0 0 0 212 212 212 212 212 232 232 232 232 12 12 12 12 72 72 72 72 72 72 100 100 100 100 100 100 100 100 100 100 100 148 -1 -1 -1 -1 -1 -1 -1 -1 
          64 64 64 64 64 176 176 176 176 76 76 76 76 76 0 0 0 0 0 0 212 212 212 212 212 12 12 12 12 12 12 12 12 72 72 72 72 72 72 72 100 100 100 100 100 100 100 100 100 100 100 148 -1 -1 -1 -1 -1 -1 -1 -1 
          64 64 64 64 64 176 176 176 176 176 76 76 76 76 0 0 0 0 0 212 212 212 212 212 212 12 12 12 12 12 12 12 12 72 72 72 72 72 72 72 100 100 100 100 100 100 100 100 100 100 148 -1 -1 -1 -1 -1 -1 -1 -1 -1 
          64 64 64 64 176 176 176 176 176 176 176 76 76 76 76 0 0 0 0 212 212 212 212 212 12 12 12 12 12 12 12 12 12 72 72 72 72 72 72 72 100 100 100 100 100 100 100 100 100 100 100 -1 -1 -1 -1 -1 -1 -1 -1 -1 
          64 64 64 176 176 176 176 176 176 176 176 176 76 76 76 0 0 0 0 212 212 212 212 212 12 12 12 12 12 12 12 12 12 72 72 72 72 72 72 72 100 100 100 100 100 100 100 100 100 100 100 -1 -1 -1 -1 -1 -1 -1 -1 -1 
          64 64 176 176 176 176 176 176 176 176 176 176 76 76 76 0 0 0 212 212 212 212 212 12 12 12 12 12 12 12 12 12 12 72 72 72 72 72 72 72 100 100 100 100 100 100 100 100 100 100 100 -1 -1 -1 -1 -1 -1 -1 -1 -1 
          64 64 176 176 176 176 176 176 176 176 176 176 76 76 76 76 0 0 212 212 212 212 12 12 12 12 12 12 12 12 12 12 12 72 72 72 72 72 72 100 100 100 100 100 100 100 100 100 100 100 100 100 -1 -1 -1 -1 -1 -1 -1 -1 
          64 64 176 176 176 176 176 176 176 176 176 178 176 76 76 76 0 0 61 61 61 12 12 12 12 12 12 12 12 12 12 12 12 12 72 72 72 72 72 100 68 68 68 68 100 100 100 100 100 100 100 100 -1 -1 -1 -1 -1 -1 -1 -1 
          64 64 176 176 176 176 178 178 178 178 178 178 178 61 61 61 61 61 61 61 61 61 61 12 12 12 12 12 12 12 12 12 12 116 116 72 72 72 72 68 68 68 68 68 68 100 100 100 100 100 100 100 -1 -1 -1 -1 -1 -1 -1 -1 
          64 64 178 178 178 178 178 178 178 178 178 178 178 61 61 61 61 61 61 61 61 61 61 61 61 12 12 12 12 12 116 116 116 116 116 116 116 72 72 68 68 68 68 68 68 68 68 68 68 68 68 -1 -1 -1 -1 -1 37 37 37 37 
          -1 178 178 178 178 178 178 178 178 178 178 178 178 61 61 61 61 61 61 61 61 61 61 61 61 61 116 116 116 116 116 116 116 116 116 116 116 116 116 68 68 68 68 68 68 68 68 68 68 68 68 -1 -1 -1 37 37 37 37 37 37 
          -1 178 178 178 178 178 178 178 178 178 178 178 178 61 61 61 61 61 61 61 61 61 61 61 61 61 116 116 116 116 116 116 116 116 116 116 116 116 116 68 68 68 68 68 68 68 68 68 68 68 68 -1 37 37 37 37 37 37 37 37 
          64 64 64 64 64 64 76 76 76 76 76 76 76 0 0 0 0 0 0 0 0 0 0 0 0 -1 -1 232 232 232 232 232 232 232 232 -1 -1 -1 -1 -1 188 188 188 188 188 188 188 188 188 -1 -1 -1 -1 -1 -1 -1 -1 -1 -1 -1 
          64 64 64 64 64 64 176 76 76 76 76 76 76 76 0 0 0 0 0 0 0 0 0 0 212 212 -1 232 232 232 232 12 12 12 72 72 72 -1 -1 -1 188 188 188 188 100 100 188 188 188 188 -1 -1 -1 -1 -1 -1 -1 -1 -1 -1 
          64 64 64 64 64 64 176 176 76 76 76 76 76 76 0 0 0 0 0 0 0 0 0 0 212 212 232 232 232 232 12 12 12 12 72 72 72 72 72 -1 188 188 100 100 100 100 100 188 188 188 148 148 -1 -1 -1 -1 -1 -1 -1 -1 
          64 64 64 64 64 176 176 176 76 76 76 76 76 76 0 0 0 0 0 0 0 0 212 212 212 212 12 12 12 12 12 12 12 72 72 72 72 72 72 72 100 100 100 100 100 100 100 188 188 188 148 148 148 -1 -1 -1 -1 -1 -1 -1 
          64 64 64 64 64 176 176 176 77 76 76 76 76 76 76 0 0 0 0 0 0 212 212 212 212 12 12 12 12 12 12 12 12 72 72 72 72 72 72 72 100 100 100 100 100 100 100 188 188 188 148 148 148 -1 -1 -1 -1 -1 -1 -1 
          64 64 64 64 64 176 176 176 176 76 76 76 76 76 76 0 0 0 0 0 212 212 212 212 212 12 12 12 12 12 12 12 12 72 72 72 72 72 72 72 100 100 100 100 100 100 100 100 188 148 148 148 -1 -1 -1 -1 -1 -1 -1 -1 
          64 64 64 64 64 176 176 176 176 176 76 76 76 76 76 0 0 0 0 212 212 212 212 212 12 12 12 12 12 12 12 12 12 72 72 72 72 72 72 72 100 100 100 100 100 100 100 100 100 148 148 148 -1 -1 -1 -1 -1 -1 -1 -1 
          64 64 64 64 176 176 176 176 176 176 176 76 76 76 76 0 0 0 0 212 212 212 212 212 12 12 12 12 12 12 12 12 12 72 72 72 72 72 72 72 100 100 100 100 100 100 100 100 100 148 148 148 -1 -1 -1 -1 -1 -1 -1 -1 
          64 64 64 176 176 176 176 176 176 176 176 176 76 76 76 0 0 0 0 212 212 212 212 212 12 12 12 12 12 12 12 12 12 72 72 72 72 72 72 72 100 100 100 100 100 100 100 100 68 148 148 148 -1 -1 -1 -1 -1 -1 -1 -1 
          64 64 176 176 176 176 176 176 176 176 176 176 76 76 76 0 0 0 0 212 212 212 12 12 12 12 12 12 12 12 12 12 12 12 72 72 72 72 72 68 68 68 68 68 100 100 100 68 68 68 68 68 -1 -1 -1 -1 208 208 -1 -1 
          64 64 176 176 176 176 176 176 176 176 176 178 178 76 76 0 0 61 61 61 61 61 12 12 12 12 12 12 12 12 12 12 12 116 116 72 72 72 72 68 68 68 68 68 68 68 68 68 68 68 68 68 -1 -1 -1 -1 208 -1 -1 -1 
          64 64 8 176 176 178 178 178 178 178 178 178 178 61 61 61 61 61 61 61 61 61 61 61 12 12 12 12 12 12 12 12 116 116 116 116 116 72 72 68 68 68 68 68 68 68 68 68 68 68 68 68 -1 -1 -1 -1 -1 -1 -1 -1 
          8 8 8 178 178 178 178 178 178 178 178 178 178 61 61 61 61 61 61 61 61 61 61 61 61 12 12 12 12 12 116 116 116 116 116 116 116 116 116 68 68 68 68 68 68 68 68 68 68 68 68 -1 -1 -1 -1 37 37 37 37 37 
          8 178 178 178 178 178 178 178 178 178 178 178 178 61 61 61 61 61 61 61 61 61 61 61 61 61 116 116 116 116 116 116 116 116 116 116 116 116 116 68 68 68 68 68 68 68 68 68 68 68 68 -1 -1 37 37 37 37 37 37 37 
          8 178 178 178 178 178 178 178 178 178 178 178 178 61 61 61 61 61 61 61 61 61 61 61 61 1 1 116 116 116 116 116 116 116 116 116 116 116 116 68 68 68 68 68 68 68 68 68 68 68 68 37 37 37 37 37 37 37 37 37 
          64 64 64 64 64 64 176 76 76 76 76 76 76 0 0 0 0 0 0 0 0 0 0 0 0 -1 -1 -1 232 232 12 12 12 -1 -1 -1 -1 -1 188 188 188 188 188 188 188 188 188 188 188 188 -1 -1 -1 -1 -1 -1 -1 -1 -1 -1 
          64 64 64 64 64 64 176 76 76 76 76 76 76 76 0 0 0 0 0 0 0 0 0 0 0 -1 -1 232 232 12 12 12 12 12 72 72 -1 -1 188 188 188 188 188 188 188 188 188 188 188 188 -1 -1 -1 -1 -1 -1 -1 -1 -1 -1 
          64 64 64 64 64 64 176 176 76 76 76 76 76 76 76 0 0 0 0 0 0 0 0 0 0 -1 -1 12 12 12 12 12 12 72 72 72 72 72 188 188 188 188 188 188 188 188 188 188 188 188 148 148 -1 -1 -1 -1 -1 -1 -1 -1 
          64 64 64 64 64 176 176 77 77 76 76 76 76 76 76 0 0 0 0 0 0 0 0 212 212 212 12 12 12 12 12 12 12 72 72 72 72 72 72 188 188 188 188 188 188 188 188 188 188 188 148 148 148 -1 -1 -1 -1 -1 -1 -1 
          64 64 64 64 64 77 77 77 77 77 76 76 76 76 76 0 0 0 0 0 0 0 212 212 212 12 12 12 12 12 12 12 12 72 72 72 72 72 72 72 100 100 100 100 188 188 188 188 188 148 148 148 148 -1 -1 -1 -1 -1 -1 -1 
          64 64 64 64 64 77 77 77 77 77 76 76 76 76 76 76 0 0 0 0 212 212 212 212 212 12 12 12 12 12 12 12 72 72 72 72 72 72 72 72 100 100 100 100 100 100 188 188 148 148 148 148 148 -1 -1 -1 -1 -1 -1 -1 
          64 64 64 64 64 77 77 77 77 77 77 76 76 76 76 0 0 0 0 0 212 212 212 212 212 12 12 12 12 12 12 12 12 72 72 72 72 72 72 72 100 100 100 100 100 100 100 148 148 148 148 148 148 -1 -1 -1 -1 -1 -1 -1 
          64 64 64 64 64 176 176 176 77 77 77 76 76 76 76 0 0 0 0 0 212 212 212 212 212 12 12 12 12 12 12 12 12 72 72 72 72 72 72 72 100 100 100 100 100 100 100 148 148 148 148 148 148 -1 -1 -1 -1 -1 -1 -1 
          64 64 64 8 176 176 176 176 176 77 77 77 76 76 76 0 0 0 0 212 212 212 212 212 212 12 12 12 12 12 12 12 12 72 72 72 72 72 72 68 68 68 68 68 100 100 68 68 148 148 148 148 -1 -1 -1 -1 208 208 -1 -1 
          64 64 8 8 176 176 176 176 176 77 77 77 76 76 76 0 0 0 0 212 212 212 212 12 12 12 12 12 12 12 12 12 12 116 116 72 72 72 68 68 68 68 68 68 68 68 68 68 68 68 148 148 -1 -1 208 208 208 208 208 -1 
          8 8 8 8 176 176 176 176 176 77 77 77 77 76 0 0 0 61 61 61 61 61 61 12 12 12 12 12 12 12 12 12 116 116 116 116 116 72 68 68 68 68 68 68 68 68 68 68 68 68 68 148 -1 -1 208 208 208 208 208 -1 
          8 8 8 8 8 178 178 77 77 77 77 178 178 178 61 61 61 61 61 61 61 61 61 61 61 12 12 12 12 12 12 116 116 116 116 116 116 116 68 68 68 68 68 68 68 68 68 68 68 68 68 -1 -1 -1 -1 208 208 208 208 -1 
          8 8 8 8 178 178 178 178 178 178 178 178 178 178 61 61 61 61 61 61 61 61 61 61 61 12 12 12 12 12 116 116 116 116 116 116 116 116 116 68 68 68 68 68 68 68 68 68 68 68 68 -1 -1 -1 -1 208 208 208 37 37 
          8 8 8 178 178 178 178 178 178 178 178 178 178 178 61 61 61 61 61 61 61 61 61 61 61 1 1 116 116 116 116 116 116 116 116 116 116 116 116 68 68 68 68 68 68 68 68 68 68 68 68 -1 37 37 37 37 37 37 37 37 
          8 8 178 178 178 178 178 178 178 178 178 178 178 61 61 61 61 61 61 61 61 61 61 61 1 1 1 116 116 116 116 116 116 116 116 116 116 116 116 68 68 68 68 68 68 68 68 68 68 68 68 37 37 37 37 37 37 37 37 37 
          64 64 64 64 64 64 176 76 76 76 76 76 76 76 0 0 0 0 0 0 0 0 0 0 0 -1 -1 -1 -1 -1 12 12 -1 -1 -1 -1 188 188 188 188 188 188 188 188 188 188 188 188 188 188 -1 -1 -1 -1 -1 -1 -1 -1 -1 -1 
          64 64 64 64 64 64 176 77 76 76 76 76 76 76 76 0 0 0 0 0 0 0 0 0 0 0 -1 -1 -1 12 12 12 12 -1 72 72 -1 188 188 188 188 188 188 188 188 188 188 188 188 188 -1 -1 -1 -1 -1 -1 -1 -1 -1 -1 
          64 64 64 64 64 64 77 77 77 76 76 76 76 76 76 76 0 0 0 0 0 0 0 0 0 -1 -1 -1 12 12 12 12 12 72 72 72 72 188 188 188 188 188 188 188 188 188 188 188 188 188 148 148 -1 -1 -1 -1 -1 -1 -1 -1 
          64 64 64 64 64 77 77 77 77 76 76 76 76 76 76 76 76 0 0 0 0 0 0 0 0 -1 -1 -1 12 12 12 12 12 72 72 72 72 72 188 188 188 188 188 188 188 188 188 188 188 188 148 148 -1 -1 -1 -1 -1 -1 -1 -1 
          64 64 64 64 64 77 77 77 77 77 76 76 76 76 76 76 76 0 0 0 0 0 0 212 212 212 -1 12 12 12 12 12 72 72 72 72 72 72 72 188 188 188 188 188 188 188 188 188 188 148 148 148 148 -1 -1 -1 -1 -1 -1 -1 
          64 64 64 64 77 77 77 77 77 77 77 76 76 76 76 76 76 0 0 0 0 212 212 212 212 212 -1 12 12 12 12 12 72 72 72 72 72 72 72 188 188 188 188 188 188 188 188 188 148 148 148 148 148 -1 -1 -1 -1 -1 -1 -1 
          64 64 64 64 77 77 77 77 77 77 77 76 76 76 76 76 76 0 0 0 0 212 212 212 212 212 12 12 12 12 12 12 12 72 72 72 72 72 72 188 188 188 188 188 188 188 148 148 148 148 148 148 148 148 112 -1 -1 -1 -1 -1 
          64 64 8 8 77 77 77 77 77 77 77 77 76 76 76 76 0 0 0 0 212 212 212 212 212 -1 12 12 12 12 12 12 12 72 72 72 72 72 72 188 188 188 188 188 188 148 148 148 148 148 148 148 148 112 112 -1 -1 -1 -1 -1 
          8 8 8 8 77 77 77 77 77 77 77 77 76 76 76 0 0 0 0 0 212 212 212 212 212 12 12 12 12 12 12 12 116 116 116 72 72 72 68 68 68 68 68 148 148 148 148 148 148 148 148 148 148 -1 112 208 208 208 -1 -1 
          8 8 8 8 8 77 77 77 77 77 77 77 77 76 56 0 0 0 0 0 212 212 212 212 -1 12 12 12 12 12 12 12 116 116 116 116 116 116 68 68 68 68 68 68 68 68 68 148 148 148 148 148 148 208 208 208 208 208 208 -1 
          8 8 8 8 8 77 77 77 77 77 77 77 77 56 56 61 61 61 61 61 61 61 61 61 61 12 12 12 12 12 12 116 116 116 116 116 116 116 68 68 68 68 68 68 68 68 68 68 148 148 148 148 148 208 208 208 208 208 208 208 
          8 8 8 8 8 178 77 77 77 77 77 77 178 56 56 61 61 61 61 61 61 61 61 61 61 12 12 12 12 12 116 116 116 116 116 116 116 116 68 68 68 68 68 68 68 68 68 68 148 148 148 148 -1 208 208 208 208 208 208 208 
          8 8 8 8 8 178 178 178 178 178 178 178 178 56 61 61 61 61 61 61 61 61 61 61 61 1 12 12 12 116 116 116 116 116 116 116 116 116 68 68 68 68 68 68 68 68 68 68 148 148 148 148 -1 208 208 208 208 208 208 -1 
          8 8 8 8 178 178 178 178 178 178 178 178 178 178 61 61 61 61 61 61 61 61 61 61 1 1 1 116 116 116 116 116 116 116 116 116 116 116 68 68 68 68 68 68 68 68 68 68 68 148 148 148 -1 208 208 208 208 208 37 37 
          8 8 8 178 178 178 178 178 178 178 178 178 178 178 61 61 61 61 61 61 61 61 61 1 1 1 1 116 116 116 116 116 116 116 116 116 116 116 68 68 68 68 68 68 68 68 68 68 68 148 148 37 37 37 37 37 37 37 37 37 
          64 64 64 64 64 64 77 77 76 76 76 76 76 76 76 76 0 0 0 0 0 0 0 0 0 -1 -1 -1 -1 -1 -1 -1 -1 -1 -1 -1 188 188 188 188 188 188 188 188 188 188 188 188 188 188 -1 -1 -1 -1 -1 -1 -1 -1 -1 -1 
          64 64 64 64 64 77 77 77 77 76 76 76 76 76 76 76 76 0 0 0 0 0 0 0 0 0 -1 -1 -1 -1 -1 -1 -1 -1 -1 -1 -1 188 188 188 188 188 188 188 188 188 188 188 188 188 213 213 -1 -1 -1 -1 -1 -1 -1 -1 
          64 64 64 64 64 77 77 77 77 76 76 76 76 76 76 76 76 76 0 0 0 0 0 0 0 -1 -1 -1 -1 -1 -1 12 -1 72 72 72 72 188 188 188 188 188 188 188 188 188 188 188 188 188 213 213 -1 -1 -1 -1 -1 -1 -1 -1 
          64 64 64 64 64 77 77 77 77 77 76 76 76 76 76 76 76 76 0 0 0 0 0 0 0 -1 -1 -1 -1 -1 -1 12 72 72 72 72 72 72 188 188 188 188 188 188 188 188 188 188 188 188 148 148 -1 -1 -1 -1 -1 -1 -1 -1 
          64 64 64 64 77 77 77 77 77 77 76 76 76 76 76 76 76 76 0 0 0 0 0 0 -1 -1 -1 -1 -1 -1 12 12 72 72 72 72 72 72 188 188 188 188 188 188 188 188 188 188 188 148 148 148 148 -1 -1 -1 -1 -1 -1 -1 